 Entering Gaussian System, Link 0=/opt/cluster/programs/g16-c.01/g16/g16
 Input=/data/toepfer/Project_Heme/H2_fit/H2_scan/h2.com
 Output=/scratch/toepfer/h2/h2.out
 Initial command:
 /opt/cluster/programs/g16-c.01/g16/l1.exe "/scratch/toepfer/h2/Gau-5201.inp" -scrdir="/scratch/toepfer/h2/"
 Entering Link 1 = /opt/cluster/programs/g16-c.01/g16/l1.exe PID=      5202.
  
 Copyright (c) 1988-2019, Gaussian, Inc.  All Rights Reserved.
  
 This is part of the Gaussian(R) 16 program.  It is based on
 the Gaussian(R) 09 system (copyright 2009, Gaussian, Inc.),
 the Gaussian(R) 03 system (copyright 2003, Gaussian, Inc.),
 the Gaussian(R) 98 system (copyright 1998, Gaussian, Inc.),
 the Gaussian(R) 94 system (copyright 1995, Gaussian, Inc.),
 the Gaussian 92(TM) system (copyright 1992, Gaussian, Inc.),
 the Gaussian 90(TM) system (copyright 1990, Gaussian, Inc.),
 the Gaussian 88(TM) system (copyright 1988, Gaussian, Inc.),
 the Gaussian 86(TM) system (copyright 1986, Carnegie Mellon
 University), and the Gaussian 82(TM) system (copyright 1983,
 Carnegie Mellon University). Gaussian is a federally registered
 trademark of Gaussian, Inc.
  
 This software contains proprietary and confidential information,
 including trade secrets, belonging to Gaussian, Inc.
  
 This software is provided under written license and may be
 used, copied, transmitted, or stored only in accord with that
 written license.
  
 The following legend is applicable only to US Government
 contracts under FAR:
  
                    RESTRICTED RIGHTS LEGEND
  
 Use, reproduction and disclosure by the US Government is
 subject to restrictions as set forth in subparagraphs (a)
 and (c) of the Commercial Computer Software - Restricted
 Rights clause in FAR 52.227-19.
  
 Gaussian, Inc.
 340 Quinnipiac St., Bldg. 40, Wallingford CT 06492
  
  
 ---------------------------------------------------------------
 Warning -- This program may not be used in any manner that
 competes with the business of Gaussian, Inc. or will provide
 assistance to any competitor of Gaussian, Inc.  The licensee
 of this program is prohibited from giving any competitor of
 Gaussian, Inc. access to this program.  By using this program,
 the user acknowledges that Gaussian, Inc. is engaged in the
 business of creating and licensing software in the field of
 computational chemistry and represents and warrants to the
 licensee that it is not a competitor of Gaussian, Inc. and that
 it will not use this program in any manner prohibited above.
 ---------------------------------------------------------------
  

 Cite this work as:
 Gaussian 16, Revision C.01,
 M. J. Frisch, G. W. Trucks, H. B. Schlegel, G. E. Scuseria, 
 M. A. Robb, J. R. Cheeseman, G. Scalmani, V. Barone, 
 G. A. Petersson, H. Nakatsuji, X. Li, M. Caricato, A. V. Marenich, 
 J. Bloino, B. G. Janesko, R. Gomperts, B. Mennucci, H. P. Hratchian, 
 J. V. Ortiz, A. F. Izmaylov, J. L. Sonnenberg, D. Williams-Young, 
 F. Ding, F. Lipparini, F. Egidi, J. Goings, B. Peng, A. Petrone, 
 T. Henderson, D. Ranasinghe, V. G. Zakrzewski, J. Gao, N. Rega, 
 G. Zheng, W. Liang, M. Hada, M. Ehara, K. Toyota, R. Fukuda, 
 J. Hasegawa, M. Ishida, T. Nakajima, Y. Honda, O. Kitao, H. Nakai, 
 T. Vreven, K. Throssell, J. A. Montgomery, Jr., J. E. Peralta, 
 F. Ogliaro, M. J. Bearpark, J. J. Heyd, E. N. Brothers, K. N. Kudin, 
 V. N. Staroverov, T. A. Keith, R. Kobayashi, J. Normand, 
 K. Raghavachari, A. P. Rendell, J. C. Burant, S. S. Iyengar, 
 J. Tomasi, M. Cossi, J. M. Millam, M. Klene, C. Adamo, R. Cammi, 
 J. W. Ochterski, R. L. Martin, K. Morokuma, O. Farkas, 
 J. B. Foresman, and D. J. Fox, Gaussian, Inc., Wallingford CT, 2019.
 
 ******************************************
 Gaussian 16:  ES64L-G16RevC.01  3-Jul-2019
                13-Aug-2024 
 ******************************************
 %MEM=10000MB
 %nproc=8
 Will use up to    8 processors via shared memory.
 %Chk=h2.chk
 -----------------------------------------------------------
 #P CCSD(T)/aug-cc-pVQZ SCF=(CONVER=8,maxcycle=200,XQC) scan
 -----------------------------------------------------------
 1/38=1,60=1,172=1/1,8;
 2/12=2,17=6,18=5,29=3,40=1/2;
 3/5=16,6=2,7=10,11=9,25=1,30=1/1,2,3;
 4//1;
 5/5=2,6=8,7=200,8=3,13=1,38=5/2,8;
 8/6=4,9=120000,10=1/1,4;
 9/5=7,14=2/13;
 6/7=2,8=2,9=2,10=2,18=1/1;
 1/60=1/8(1);
 99/9=1/99;
 2/29=3/2;
 3/5=16,6=2,7=10,11=9,25=1,30=1/1,2,3;
 4/5=5,16=3,69=1/1;
 5/5=2,6=8,7=200,8=3,13=1,38=5/2,8;
 8/6=4,9=120000,10=1/1,4;
 9/5=7,14=2/13;
 1/60=1/8(-6);
 99/9=1/99;
 Leave Link    1 at Tue Aug 13 16:18:18 2024, MaxMem=  1310720000 cpu:               0.3 elap:               0.0
 (Enter /opt/cluster/programs/g16-c.01/g16/l101.exe)
 -----------------
 HEME + H2 2D Scan
 -----------------
 Symbolic Z-matrix:
 Charge =  0 Multiplicity = 1
 h
 h                    1    dh2
       Variables:
  dh2                   0.5    Scan 100   0.01   
 
 ITRead=  0  0
 MicOpt= -1 -1
 NAtoms=      2 NQM=        2 NQMF=       0 NMMI=      0 NMMIF=      0
                NMic=       0 NMicF=      0.
                    Isotopes and Nuclear Properties:
 (Nuclear quadrupole moments (NQMom) in fm**2, nuclear magnetic moments (NMagM)
  in nuclear magnetons)

  Atom         1           2
 IAtWgt=           1           1
 AtmWgt=   1.0078250   1.0078250
 NucSpn=           1           1
 AtZEff=  -0.0000000  -0.0000000
 NQMom=    0.0000000   0.0000000
 NMagM=    2.7928460   2.7928460
 AtZNuc=   1.0000000   1.0000000
 Leave Link  101 at Tue Aug 13 16:18:18 2024, MaxMem=  1310720000 cpu:               1.6 elap:               0.2
 (Enter /opt/cluster/programs/g16-c.01/g16/l108.exe)
 Scan the potential surface.
 Variable   Value     No. Steps Step-Size
 -------- ----------- --------- ---------
     1       0.500000     100      0.0100
 A total of    101 points will be computed.
 Leave Link  108 at Tue Aug 13 16:18:18 2024, MaxMem=  1310720000 cpu:               0.0 elap:               0.0
 (Enter /opt/cluster/programs/g16-c.01/g16/l202.exe)
 ---------------------------------------------------------------------------------------------------
                            Z-MATRIX (ANGSTROMS AND DEGREES)
   CD    Cent   Atom    N1       Length/X        N2       Alpha/Y        N3        Beta/Z          J
 ---------------------------------------------------------------------------------------------------
      1      1  H 
      2      2  H        1   0.500000(     1)
 ---------------------------------------------------------------------------------------------------
                         Z-Matrix orientation:                         
 ---------------------------------------------------------------------
 Center     Atomic      Atomic             Coordinates (Angstroms)
 Number     Number       Type             X           Y           Z
 ---------------------------------------------------------------------
      1          1           0        0.000000    0.000000    0.000000
      2          1           0        0.000000    0.000000    0.500000
 ---------------------------------------------------------------------
 Stoichiometry    H2
 Framework group  D*H[C*(H.H)]
 Deg. of freedom     1
 Full point group                 D*H     NOp   8
 Largest Abelian subgroup         D2H     NOp   8
 Largest concise Abelian subgroup C2      NOp   2
                         Standard orientation:                         
 ---------------------------------------------------------------------
 Center     Atomic      Atomic             Coordinates (Angstroms)
 Number     Number       Type             X           Y           Z
 ---------------------------------------------------------------------
      1          1           0        0.000000    0.000000    0.250000
      2          1           0        0.000000    0.000000   -0.250000
 ---------------------------------------------------------------------
 Rotational constants (GHZ):           0.0000000        4011.6408358        4011.6408358
 Leave Link  202 at Tue Aug 13 16:18:18 2024, MaxMem=  1310720000 cpu:               0.0 elap:               0.0
 (Enter /opt/cluster/programs/g16-c.01/g16/l301.exe)
 Standard basis: Aug-CC-pVQZ (5D, 7F)
 Ernie: Thresh=  0.10000D-02 Tol=  0.10000D-05 Strict=F.
 There are    24 symmetry adapted cartesian basis functions of AG  symmetry.
 There are     5 symmetry adapted cartesian basis functions of B1G symmetry.
 There are    13 symmetry adapted cartesian basis functions of B2G symmetry.
 There are    13 symmetry adapted cartesian basis functions of B3G symmetry.
 There are     5 symmetry adapted cartesian basis functions of AU  symmetry.
 There are    24 symmetry adapted cartesian basis functions of B1U symmetry.
 There are    13 symmetry adapted cartesian basis functions of B2U symmetry.
 There are    13 symmetry adapted cartesian basis functions of B3U symmetry.
 There are    19 symmetry adapted basis functions of AG  symmetry.
 There are     5 symmetry adapted basis functions of B1G symmetry.
 There are    11 symmetry adapted basis functions of B2G symmetry.
 There are    11 symmetry adapted basis functions of B3G symmetry.
 There are     5 symmetry adapted basis functions of AU  symmetry.
 There are    19 symmetry adapted basis functions of B1U symmetry.
 There are    11 symmetry adapted basis functions of B2U symmetry.
 There are    11 symmetry adapted basis functions of B3U symmetry.
    92 basis functions,   114 primitive gaussians,   110 cartesian basis functions
     1 alpha electrons        1 beta electrons
       nuclear repulsion energy         1.0583544218 Hartrees.
 IExCor=    0 DFT=F Ex=HF Corr=None ExCW=0 ScaHFX=  1.000000
 ScaDFX=  1.000000  1.000000  1.000000  1.000000 ScalE2=  1.000000  1.000000
 IRadAn=      5 IRanWt=     -1 IRanGd=            0 ICorTp=0 IEmpDi=  4
 NAtoms=    2 NActive=    2 NUniq=    1 SFac= 4.00D+00 NAtFMM=   60 NAOKFM=F Big=F
 Integral buffers will be    131072 words long.
 Raffenetti 1 integral format.
 Two-electron integral symmetry is turned on.
 Leave Link  301 at Tue Aug 13 16:18:19 2024, MaxMem=  1310720000 cpu:               0.3 elap:               0.0
 (Enter /opt/cluster/programs/g16-c.01/g16/l302.exe)
 NPDir=0 NMtPBC=     1 NCelOv=     1 NCel=       1 NClECP=     1 NCelD=      1
         NCelK=      1 NCelE2=     1 NClLst=     1 CellRange=     0.0.
 One-electron integrals computed using PRISM.
 One-electron integral symmetry used in STVInt
 NBasis=    92 RedAO= T EigKep=  3.47D-06  NBF=    19     5    11    11     5    19    11    11
 NBsUse=    92 1.00D-06 EigRej= -1.00D+00 NBFU=    19     5    11    11     5    19    11    11
 Leave Link  302 at Tue Aug 13 16:18:19 2024, MaxMem=  1310720000 cpu:               1.0 elap:               0.1
 (Enter /opt/cluster/programs/g16-c.01/g16/l303.exe)
 DipDrv:  MaxL=1.
 Leave Link  303 at Tue Aug 13 16:18:19 2024, MaxMem=  1310720000 cpu:               0.3 elap:               0.0
 (Enter /opt/cluster/programs/g16-c.01/g16/l401.exe)
 ExpMin= 2.36D-02 ExpMax= 8.26D+01 ExpMxC= 8.26D+01 IAcc=3 IRadAn=         5 AccDes= 0.00D+00
 Harris functional with IExCor=  205 and IRadAn=       5 diagonalized for initial guess.
 HarFok:  IExCor=  205 AccDes= 0.00D+00 IRadAn=         5 IDoV= 1 UseB2=F ITyADJ=14
 ICtDFT=  3500011 ScaDFX=  1.000000  1.000000  1.000000  1.000000
 FoFCou: FMM=F IPFlag=           0 FMFlag=      100000 FMFlg1=           0
         NFxFlg=           0 DoJE=T BraDBF=F KetDBF=T FulRan=T
         wScrn=  0.000000 ICntrl=       500 IOpCl=  0 I1Cent=   200000004 NGrid=           0
         NMat0=    1 NMatS0=      1 NMatT0=    0 NMatD0=    1 NMtDS0=    0 NMtDT0=    0
 Petite list used in FoFCou.
 Harris En= -1.13233029837932    
 JPrj=0 DoOrth=F DoCkMO=F.
 Initial guess orbital symmetries:
       Occupied  (SGG)
       Virtual   (SGG) (SGU) (PIU) (PIU) (SGU) (SGG) (PIG) (PIG)
                 (SGG) (SGU) (DLTG) (DLTG) (PIU) (PIU) (SGU) (PIG)
                 (PIG) (SGG) (DLTU) (DLTU) (PIU) (PIU) (SGU) (SGG)
                 (SGU) (PIG) (PIG) (PHIU) (PHIU) (SGG) (PIU) (PIU)
                 (SGU) (DLTU) (DLTU) (DLTG) (DLTG) (SGG) (PHIG)
                 (PHIG) (PIG) (PIG) (PIU) (PIU) (DLTG) (DLTG) (SGU)
                 (SGG) (PIG) (PIG) (SGU) (PIU) (PIU) (DLTU) (DLTU)
                 (SGG) (PIG) (PIG) (SGU) (SGG) (PHIU) (PHIU) (DLTG)
                 (DLTG) (PIU) (PIU) (SGU) (PHIG) (PHIG) (PIG) (PIG)
                 (DLTU) (DLTU) (PIU) (PIU) (SGG) (DLTG) (DLTG)
                 (SGG) (PIG) (PIG) (SGU) (PIU) (PIU) (SGU) (DLTU)
                 (DLTU) (PIG) (PIG) (SGU) (SGG)
 The electronic state of the initial guess is 1-SGG.
 Leave Link  401 at Tue Aug 13 16:18:19 2024, MaxMem=  1310720000 cpu:               1.3 elap:               0.2
 (Enter /opt/cluster/programs/g16-c.01/g16/l502.exe)
 Keep R1 ints in memory in symmetry-blocked form, NReq=13066297.
 FoFCou: FMM=F IPFlag=           0 FMFlag=           0 FMFlg1=           0
         NFxFlg=           0 DoJE=F BraDBF=F KetDBF=F FulRan=T
         wScrn=  0.000000 ICntrl=       600 IOpCl=  0 I1Cent=           0 NGrid=           0
         NMat0=    1 NMatS0=   4278 NMatT0=    0 NMatD0=    1 NMtDS0=    0 NMtDT0=    0
 Petite list used in FoFCou.
 Closed shell SCF:
 Using DIIS extrapolation, IDIIS=  1040.
 NGot=  1310720000 LenX=  1309507963 LenY=  1309495422
 Requested convergence on RMS density matrix=1.00D-08 within 128 cycles.
 Requested convergence on MAX density matrix=1.00D-06.
 Requested convergence on             energy=1.00D-06.
 No special actions if energy rises.

 Cycle   1  Pass 1  IDiag  1:
 E= -1.05688214197114    
 DIIS: error= 3.29D-02 at cycle   1 NSaved=   1.
 NSaved= 1 IEnMin= 1 EnMin= -1.05688214197114     IErMin= 1 ErrMin= 3.29D-02
 ErrMax= 3.29D-02  0.00D+00 EMaxC= 1.00D-01 BMatC= 7.58D-03 BMatP= 7.58D-03
 IDIUse=3 WtCom= 6.71D-01 WtEn= 3.29D-01
 Coeff-Com:  0.100D+01
 Coeff-En:   0.100D+01
 Coeff:      0.100D+01
 Gap=     0.716 Goal=   None    Shift=    0.000
 GapD=    0.716 DampG=2.000 DampE=0.500 DampFc=1.0000 IDamp=-1.
 RMSDP=2.96D-04 MaxDP=6.21D-03              OVMax= 4.70D-02

 Cycle   2  Pass 1  IDiag  1:
 E= -1.06455757275840     Delta-E=       -0.007675430787 Rises=F Damp=F
 DIIS: error= 3.76D-03 at cycle   2 NSaved=   2.
 NSaved= 2 IEnMin= 2 EnMin= -1.06455757275840     IErMin= 2 ErrMin= 3.76D-03
 ErrMax= 3.76D-03  0.00D+00 EMaxC= 1.00D-01 BMatC= 8.18D-05 BMatP= 7.58D-03
 IDIUse=3 WtCom= 9.62D-01 WtEn= 3.76D-02
 Coeff-Com: -0.933D-01 0.109D+01
 Coeff-En:   0.000D+00 0.100D+01
 Coeff:     -0.898D-01 0.109D+01
 Gap=     0.726 Goal=   None    Shift=    0.000
 RMSDP=5.19D-05 MaxDP=1.30D-03 DE=-7.68D-03 OVMax= 7.64D-03

 Cycle   3  Pass 1  IDiag  1:
 E= -1.06469560641040     Delta-E=       -0.000138033652 Rises=F Damp=F
 DIIS: error= 2.69D-04 at cycle   3 NSaved=   3.
 NSaved= 3 IEnMin= 3 EnMin= -1.06469560641040     IErMin= 3 ErrMin= 2.69D-04
 ErrMax= 2.69D-04  0.00D+00 EMaxC= 1.00D-01 BMatC= 9.19D-07 BMatP= 8.18D-05
 IDIUse=3 WtCom= 9.97D-01 WtEn= 2.69D-03
 Coeff-Com:  0.196D-01-0.226D+00 0.121D+01
 Coeff-En:   0.000D+00 0.000D+00 0.100D+01
 Coeff:      0.195D-01-0.225D+00 0.121D+01
 Gap=     0.727 Goal=   None    Shift=    0.000
 RMSDP=1.00D-05 MaxDP=1.62D-04 DE=-1.38D-04 OVMax= 9.92D-04

 Cycle   4  Pass 1  IDiag  1:
 E= -1.06469737310079     Delta-E=       -0.000001766690 Rises=F Damp=F
 DIIS: error= 2.36D-05 at cycle   4 NSaved=   4.
 NSaved= 4 IEnMin= 4 EnMin= -1.06469737310079     IErMin= 4 ErrMin= 2.36D-05
 ErrMax= 2.36D-05  0.00D+00 EMaxC= 1.00D-01 BMatC= 5.64D-09 BMatP= 9.19D-07
 IDIUse=1 WtCom= 1.00D+00 WtEn= 0.00D+00
 Coeff-Com: -0.323D-02 0.385D-01-0.245D+00 0.121D+01
 Coeff:     -0.323D-02 0.385D-01-0.245D+00 0.121D+01
 Gap=     0.727 Goal=   None    Shift=    0.000
 RMSDP=1.33D-06 MaxDP=4.19D-05 DE=-1.77D-06 OVMax= 9.58D-05

 Cycle   5  Pass 1  IDiag  1:
 E= -1.06469738694589     Delta-E=       -0.000000013845 Rises=F Damp=F
 DIIS: error= 1.09D-06 at cycle   5 NSaved=   5.
 NSaved= 5 IEnMin= 5 EnMin= -1.06469738694589     IErMin= 5 ErrMin= 1.09D-06
 ErrMax= 1.09D-06  0.00D+00 EMaxC= 1.00D-01 BMatC= 1.36D-11 BMatP= 5.64D-09
 IDIUse=1 WtCom= 1.00D+00 WtEn= 0.00D+00
 Coeff-Com:  0.290D-03-0.342D-02 0.231D-01-0.148D+00 0.113D+01
 Coeff:      0.290D-03-0.342D-02 0.231D-01-0.148D+00 0.113D+01
 Gap=     0.727 Goal=   None    Shift=    0.000
 RMSDP=7.29D-08 MaxDP=2.30D-06 DE=-1.38D-08 OVMax= 4.67D-06

 Cycle   6  Pass 1  IDiag  1:
 E= -1.06469738697839     Delta-E=       -0.000000000033 Rises=F Damp=F
 DIIS: error= 4.94D-08 at cycle   6 NSaved=   6.
 NSaved= 6 IEnMin= 6 EnMin= -1.06469738697839     IErMin= 6 ErrMin= 4.94D-08
 ErrMax= 4.94D-08  0.00D+00 EMaxC= 1.00D-01 BMatC= 3.75D-14 BMatP= 1.36D-11
 IDIUse=1 WtCom= 1.00D+00 WtEn= 0.00D+00
 Coeff-Com: -0.211D-04 0.242D-03-0.172D-02 0.119D-01-0.126D+00 0.112D+01
 Coeff:     -0.211D-04 0.242D-03-0.172D-02 0.119D-01-0.126D+00 0.112D+01
 Gap=     0.727 Goal=   None    Shift=    0.000
 RMSDP=3.95D-09 MaxDP=5.78D-08 DE=-3.25D-11 OVMax= 2.81D-07

 SCF Done:  E(RHF) =  -1.06469738698     A.U. after    6 cycles
            NFock=  6  Conv=0.40D-08     -V/T= 1.7313
 KE= 1.455923714395D+00 PE=-4.337789800986D+00 EE= 7.588142777728D-01
 Leave Link  502 at Tue Aug 13 16:18:19 2024, MaxMem=  1310720000 cpu:               2.9 elap:               0.4
 (Enter /opt/cluster/programs/g16-c.01/g16/l508.exe)
 QCSCF skips out because SCF is already converged.
 Leave Link  508 at Tue Aug 13 16:18:19 2024, MaxMem=  1310720000 cpu:               0.0 elap:               0.0
 (Enter /opt/cluster/programs/g16-c.01/g16/l801.exe)
 Windowed orbitals will be sorted by symmetry type.
 Range of M.O.s used for correlation:     1    92
 NBasis=    92 NAE=     1 NBE=     1 NFC=     0 NFV=     0
 NROrb=     92 NOA=     1 NOB=     1 NVA=    91 NVB=    91

 **** Warning!!: The largest alpha MO coefficient is  0.15913579D+03

 Leave Link  801 at Tue Aug 13 16:18:19 2024, MaxMem=  1310720000 cpu:               0.3 elap:               0.0
 (Enter /opt/cluster/programs/g16-c.01/g16/l804.exe)
 Closed-shell transformation, MDV=  1310720000 ITran=4 ISComp=2.
 Unit  1 TFree=         20799 TCopy=        447554.
 Semi-Direct transformation.
 ModeAB=           4 MOrb=             1 LenV=    1310341315
 LASXX=        49960 LTotXX=       49960 LenRXX=      102232
 LTotAB=       52272 MaxLAS=      310408 LenRXY=           0
 NonZer=      152192 LenScr=      785920 LnRSAI=      310408
 LnScr1=      930816 LExtra=           0 Total=      2129376
 MaxDsk=          -1 SrtSym=           T ITran=            4
 DoSDTr:  NPSUse=  8
 JobTyp=0 Pass  1:  I=   1 to   1.
 (rs|ai) integrals will be sorted in core.
 Complete sort for first half transformation.
 First half transformation complete.
 Complete sort for second half transformation.
 Second half transformation complete.
 Spin components of T(2) and E(2):
     alpha-alpha T2 =       0.0000000000D+00 E2=      0.0000000000D+00
     alpha-beta  T2 =       0.8022352383D-02 E2=     -0.3291173066D-01
     beta-beta   T2 =       0.0000000000D+00 E2=      0.0000000000D+00
 ANorm=    0.1004003164D+01
 E2 =    -0.3291173066D-01 EUMP2 =    -0.10976091176363D+01
 Leave Link  804 at Tue Aug 13 16:18:20 2024, MaxMem=  1310720000 cpu:               1.7 elap:               0.2
 (Enter /opt/cluster/programs/g16-c.01/g16/l913.exe)
 CIDS:  MDV=  1310720000.
 IFCWin=0 IBDFC=1 NFBD=     0     0 NFCmp=     0     0 NFFFC=     0     0
 Using DD3R+UMP44R for 1st iteration.
 Using DD4RQ for 2nd and later iterations.
 Keep R2 and R3 ints in memory in symmetry-blocked form, NReq=13069217.
 FoFCou: FMM=F IPFlag=           0 FMFlag=           0 FMFlg1=           0
         NFxFlg=           0 DoJE=F BraDBF=F KetDBF=F FulRan=T
         wScrn=  0.000000 ICntrl=       600 IOpCl=  0 I1Cent=           0 NGrid=           0
         NMat0=    1 NMatS0=   4278 NMatT0=    0 NMatD0=    1 NMtDS0=    0 NMtDT0=    0
 Petite list used in FoFCou.
 CIDS: In Core Option IDoMem=           1.
 CCSD(T)
 =======
 Iterations=  50 Convergence= 0.100D-06
 Produce multiple copies of IABC intergrals
 Iteration Nr.   1
 **********************
 DD1Dir will call FoFMem   1 times, MxPair=         2
 NAB=     1 NAA=     0 NBB=     0.
 MP4(R+Q)=  0.26402950D-03
 Maximum subspace dimension=  5
 A-vector RMS=  8.0782631D-04 Max=  3.4777054D-03 conv= 1.00D-05.
 RLE energy=       -0.0376866572
 E3=       -0.44350061D-02        EUMP3=      -0.11020441237D+01
 E4(DQ)=   -0.10264331D-02        UMP4(DQ)=   -0.11030705567D+01
 E4(SDQ)=  -0.10534029D-02        UMP4(SDQ)=  -0.11030975266D+01
 VARIATIONAL ENERGIES WITH THE FIRST-ORDER WAVEFUNCTION:
 DE(Corr)= -0.37081671E-01 E(Corr)=     -1.1017790576    
 NORM(A)=   0.10057952D+01
 Iteration Nr.   2
 **********************
 DD1Dir will call FoFMem   1 times, MxPair=         2
 NAB=     1 NAA=     0 NBB=     0.
 A-vector RMS=  1.0738156D-04 Max=  7.9803525D-04 conv= 1.00D-05.
 RLE energy=       -0.0387118477
 DE(Corr)= -0.38438656E-01 E(CORR)=     -1.1031360425     Delta=-1.36D-03
 NORM(A)=   0.10062480D+01
 Iteration Nr.   3
 **********************
 DD1Dir will call FoFMem   1 times, MxPair=         2
 NAB=     1 NAA=     0 NBB=     0.
 A-vector RMS=  4.4250980D-05 Max=  1.0891154D-04 conv= 1.00D-05.
 RLE energy=       -0.0387209177
 DE(Corr)= -0.38708697E-01 E(CORR)=     -1.1034060844     Delta=-2.70D-04
 NORM(A)=   0.10062680D+01
 Iteration Nr.   4
 **********************
 DD1Dir will call FoFMem   1 times, MxPair=         2
 NAB=     1 NAA=     0 NBB=     0.
 A-vector RMS=  7.4234949D-06 Max=  2.9310230D-05 conv= 1.00D-05.
 RLE energy=       -0.0387229314
 DE(Corr)= -0.38722130E-01 E(CORR)=     -1.1034195171     Delta=-1.34D-05
 NORM(A)=   0.10062713D+01
 Iteration Nr.   5
 **********************
 DD1Dir will call FoFMem   1 times, MxPair=         2
 NAB=     1 NAA=     0 NBB=     0.
 A-vector RMS=  1.8309458D-06 Max=  4.7953444D-06 conv= 1.00D-05.
 RLE energy=       -0.0387229108
 DE(Corr)= -0.38722852E-01 E(CORR)=     -1.1034202395     Delta=-7.22D-07
 NORM(A)=   0.10062715D+01
 Iteration Nr.   6
 **********************
 DD1Dir will call FoFMem   1 times, MxPair=         2
 NAB=     1 NAA=     0 NBB=     0.
 A-vector RMS=  2.7611005D-07 Max=  9.0616362D-07 conv= 1.00D-05.
 RLE energy=       -0.0387228546
 DE(Corr)= -0.38722869E-01 E(CORR)=     -1.1034202555     Delta=-1.61D-08
 NORM(A)=   0.10062714D+01
 CI/CC converged in    6 iterations to DelEn=-1.61D-08 Conv= 1.00D-07 ErrA1= 2.76D-07 Conv= 1.00D-05
 Wavefunction amplitudes converged. E(Corr)=     -1.1034202555    
 Largest amplitude= 2.41D-02
 Time for triples=        0.00 seconds.
 T4(CCSD)=  0.00000000D+00
 T5(CCSD)=  0.00000000D+00
 CCSD(T)= -0.11034202555D+01
 Discarding MO integrals.
 Leave Link  913 at Tue Aug 13 16:18:20 2024, MaxMem=  1310720000 cpu:               3.1 elap:               0.4
 (Enter /opt/cluster/programs/g16-c.01/g16/l601.exe)
 Copying SCF densities to generalized density rwf, IOpCl= 0 IROHF=0.

 **********************************************************************

            Population analysis using the SCF Density.

 **********************************************************************

 Orbital symmetries:
       Occupied  (SGG)
       Virtual   (SGG) (SGU) (SGU) (PIU) (PIU) (SGG) (PIG) (PIG)
                 (SGG) (SGU) (DLTG) (DLTG) (SGU) (PIG) (PIG) (SGG)
                 (PIU) (PIU) (DLTU) (DLTU) (PIU) (PIU) (SGU) (SGG)
                 (SGU) (PIG) (PIG) (PHIU) (PHIU) (SGG) (PIU) (PIU)
                 (DLTU) (DLTU) (SGU) (DLTG) (DLTG) (SGG) (PHIG)
                 (PHIG) (PIG) (PIG) (PIU) (PIU) (DLTG) (DLTG) (SGU)
                 (SGG) (PIG) (PIG) (SGU) (PIU) (PIU) (DLTU) (DLTU)
                 (SGG) (PIG) (PIG) (SGU) (PHIU) (PHIU) (SGG) (DLTG)
                 (DLTG) (PIU) (PIU) (SGU) (PHIG) (PHIG) (PIG) (PIG)
                 (DLTU) (DLTU) (PIU) (PIU) (SGG) (DLTG) (DLTG)
                 (SGG) (PIG) (PIG) (SGU) (PIU) (PIU) (SGU) (DLTU)
                 (DLTU) (PIG) (PIG) (SGU) (SGG)
 The electronic state is 1-SGG.
 Alpha  occ. eigenvalues --   -0.68212
 Alpha virt. eigenvalues --    0.04507   0.04855   0.17119   0.17931   0.17931
 Alpha virt. eigenvalues --    0.22859   0.23522   0.23522   0.31552   0.38602
 Alpha virt. eigenvalues --    0.61260   0.61260   0.63678   0.67319   0.67319
 Alpha virt. eigenvalues --    0.69850   0.70448   0.70448   0.70552   0.70552
 Alpha virt. eigenvalues --    0.73608   0.73608   0.84170   1.11244   1.44888
 Alpha virt. eigenvalues --    1.45881   1.45881   1.54415   1.54415   1.73372
 Alpha virt. eigenvalues --    1.81605   1.81605   1.82397   1.82397   1.82441
 Alpha virt. eigenvalues --    1.90935   1.90935   1.91196   1.91454   1.91454
 Alpha virt. eigenvalues --    1.91923   1.91923   2.39992   2.39992   2.44190
 Alpha virt. eigenvalues --    2.44190   2.71342   2.84325   2.92912   2.92912
 Alpha virt. eigenvalues --    3.55927   3.89058   3.89058   3.90997   3.90997
 Alpha virt. eigenvalues --    4.13020   4.98974   4.98974   5.20817   6.29466
 Alpha virt. eigenvalues --    6.29466   6.30088   7.17107   7.17107   7.31155
 Alpha virt. eigenvalues --    7.31155   7.41121   7.51462   7.51462   7.53832
 Alpha virt. eigenvalues --    7.53832   7.78249   7.78249   8.04985   8.04985
 Alpha virt. eigenvalues --    8.16231   8.32925   8.32925   9.66632   9.83191
 Alpha virt. eigenvalues --    9.83191  10.07405  10.75371  10.75371  11.02635
 Alpha virt. eigenvalues --   11.41935  11.41935  15.61297  15.61297  17.35444
 Alpha virt. eigenvalues --   18.67293
          Condensed to atoms (all electrons):
               1          2
     1  H    0.545821   0.454179
     2  H    0.454179   0.545821
 Mulliken charges:
               1
     1  H   -0.000000
     2  H   -0.000000
 Sum of Mulliken charges =  -0.00000
 Mulliken charges with hydrogens summed into heavy atoms:
               1
 Electronic spatial extent (au):  <R**2>=              3.9939
 Charge=             -0.0000 electrons
 Dipole moment (field-independent basis, Debye):
    X=             -0.0000    Y=              0.0000    Z=             -0.0000  Tot=              0.0000
 Quadrupole moment (field-independent basis, Debye-Ang):
   XX=             -1.6995   YY=             -1.6995   ZZ=             -1.3725
   XY=             -0.0000   XZ=             -0.0000   YZ=              0.0000
 Traceless Quadrupole moment (field-independent basis, Debye-Ang):
   XX=             -0.1090   YY=             -0.1090   ZZ=              0.2180
   XY=             -0.0000   XZ=             -0.0000   YZ=              0.0000
 Octapole moment (field-independent basis, Debye-Ang**2):
  XXX=             -0.0000  YYY=             -0.0000  ZZZ=              0.0000  XYY=             -0.0000
  XXY=             -0.0000  XXZ=              0.0000  XZZ=             -0.0000  YZZ=              0.0000
  YYZ=              0.0000  XYZ=              0.0000
 Hexadecapole moment (field-independent basis, Debye-Ang**3):
 XXXX=             -1.4083 YYYY=             -1.4083 ZZZZ=             -1.6311 XXXY=             -0.0000
 XXXZ=              0.0000 YYYX=             -0.0000 YYYZ=              0.0000 ZZZX=              0.0000
 ZZZY=              0.0000 XXYY=             -0.4694 XXZZ=             -0.5101 YYZZ=             -0.5101
 XXYZ=              0.0000 YYXZ=              0.0000 ZZXY=             -0.0000
 N-N= 1.058354421840D+00 E-N=-4.337789754758D+00  KE= 1.455923714395D+00
 Symmetry AG   KE= 1.455923714395D+00
 Symmetry B1G  KE=-6.745130625298D-54
 Symmetry B2G  KE= 3.554397977844D-30
 Symmetry B3G  KE= 3.554397977843D-30
 Symmetry AU   KE= 1.475235746864D-55
 Symmetry B1U  KE=-3.963616773863D-20
 Symmetry B2U  KE= 5.512205273511D-33
 Symmetry B3U  KE= 5.512205273511D-33
 Leave Link  601 at Tue Aug 13 16:18:20 2024, MaxMem=  1310720000 cpu:               0.4 elap:               0.1
 (Enter /opt/cluster/programs/g16-c.01/g16/l108.exe)
 Variable Step   Value    
 -------- ---- -----------
     1       1    0.963760
 Leave Link  108 at Tue Aug 13 16:18:20 2024, MaxMem=  1310720000 cpu:               0.0 elap:               0.0
 (Enter /opt/cluster/programs/g16-c.01/g16/l202.exe)
 ---------------------------------------------------------------------------------------------------
                            Z-MATRIX (ANGSTROMS AND DEGREES)
   CD    Cent   Atom    N1       Length/X        N2       Alpha/Y        N3        Beta/Z          J
 ---------------------------------------------------------------------------------------------------
      1      1  H 
      2      2  H        1   0.510000(     1)
 ---------------------------------------------------------------------------------------------------
                         Z-Matrix orientation:                         
 ---------------------------------------------------------------------
 Center     Atomic      Atomic             Coordinates (Angstroms)
 Number     Number       Type             X           Y           Z
 ---------------------------------------------------------------------
      1          1           0        0.000000    0.000000    0.000000
      2          1           0        0.000000    0.000000    0.510000
 ---------------------------------------------------------------------
 Stoichiometry    H2
 Framework group  D*H[C*(H.H)]
 Deg. of freedom     1
 Full point group                 D*H     NOp   8
 RotChk:  IX=0 Diff= 0.00D+00
 Largest Abelian subgroup         D2H     NOp   8
 Largest concise Abelian subgroup C2      NOp   2
                         Standard orientation:                         
 ---------------------------------------------------------------------
 Center     Atomic      Atomic             Coordinates (Angstroms)
 Number     Number       Type             X           Y           Z
 ---------------------------------------------------------------------
      1          1           0        0.000000    0.000000    0.255000
      2          1           0        0.000000    0.000000   -0.255000
 ---------------------------------------------------------------------
 Rotational constants (GHZ):           0.0000000        3855.8639329        3855.8639329
 Leave Link  202 at Tue Aug 13 16:18:20 2024, MaxMem=  1310720000 cpu:               0.0 elap:               0.0
 (Enter /opt/cluster/programs/g16-c.01/g16/l301.exe)
 Standard basis: Aug-CC-pVQZ (5D, 7F)
 Ernie: Thresh=  0.10000D-02 Tol=  0.10000D-05 Strict=F.
 There are    24 symmetry adapted cartesian basis functions of AG  symmetry.
 There are     5 symmetry adapted cartesian basis functions of B1G symmetry.
 There are    13 symmetry adapted cartesian basis functions of B2G symmetry.
 There are    13 symmetry adapted cartesian basis functions of B3G symmetry.
 There are     5 symmetry adapted cartesian basis functions of AU  symmetry.
 There are    24 symmetry adapted cartesian basis functions of B1U symmetry.
 There are    13 symmetry adapted cartesian basis functions of B2U symmetry.
 There are    13 symmetry adapted cartesian basis functions of B3U symmetry.
 There are    19 symmetry adapted basis functions of AG  symmetry.
 There are     5 symmetry adapted basis functions of B1G symmetry.
 There are    11 symmetry adapted basis functions of B2G symmetry.
 There are    11 symmetry adapted basis functions of B3G symmetry.
 There are     5 symmetry adapted basis functions of AU  symmetry.
 There are    19 symmetry adapted basis functions of B1U symmetry.
 There are    11 symmetry adapted basis functions of B2U symmetry.
 There are    11 symmetry adapted basis functions of B3U symmetry.
    92 basis functions,   114 primitive gaussians,   110 cartesian basis functions
     1 alpha electrons        1 beta electrons
       nuclear repulsion energy         1.0376023744 Hartrees.
 IExCor=    0 DFT=F Ex=HF Corr=None ExCW=0 ScaHFX=  1.000000
 ScaDFX=  1.000000  1.000000  1.000000  1.000000 ScalE2=  1.000000  1.000000
 IRadAn=      5 IRanWt=     -1 IRanGd=            0 ICorTp=0 IEmpDi=  4
 NAtoms=    2 NActive=    2 NUniq=    1 SFac= 4.00D+00 NAtFMM=   60 NAOKFM=F Big=F
 Integral buffers will be    131072 words long.
 Raffenetti 1 integral format.
 Two-electron integral symmetry is turned on.
 Leave Link  301 at Tue Aug 13 16:18:20 2024, MaxMem=  1310720000 cpu:               0.3 elap:               0.0
 (Enter /opt/cluster/programs/g16-c.01/g16/l302.exe)
 NPDir=0 NMtPBC=     1 NCelOv=     1 NCel=       1 NClECP=     1 NCelD=      1
         NCelK=      1 NCelE2=     1 NClLst=     1 CellRange=     0.0.
 One-electron integrals computed using PRISM.
 One-electron integral symmetry used in STVInt
 NBasis=    92 RedAO= T EigKep=  3.67D-06  NBF=    19     5    11    11     5    19    11    11
 NBsUse=    92 1.00D-06 EigRej= -1.00D+00 NBFU=    19     5    11    11     5    19    11    11
 Leave Link  302 at Tue Aug 13 16:18:20 2024, MaxMem=  1310720000 cpu:               1.0 elap:               0.1
 (Enter /opt/cluster/programs/g16-c.01/g16/l303.exe)
 DipDrv:  MaxL=1.
 Leave Link  303 at Tue Aug 13 16:18:20 2024, MaxMem=  1310720000 cpu:               0.3 elap:               0.0
 (Enter /opt/cluster/programs/g16-c.01/g16/l401.exe)
 Initial guess from the checkpoint file:  "h2.chk"
 B after Tr=     0.000000    0.000000    0.000000
         Rot=    1.000000    0.000000    0.000000    0.000000 Ang=   0.00 deg.
 Guess basis will be translated and rotated to current coordinates.
 JPrj=2 DoOrth=T DoCkMO=T.
 Initial guess orbital symmetries:
       Occupied  (SGG)
       Virtual   (SGG) (SGU) (SGU) (PIU) (PIU) (SGG) (PIG) (PIG)
                 (SGG) (SGU) (DLTG) (DLTG) (SGU) (PIG) (PIG) (SGG)
                 (PIU) (PIU) (DLTU) (DLTU) (PIU) (PIU) (SGU) (SGG)
                 (SGU) (PIG) (PIG) (PHIU) (PHIU) (SGG) (PIU) (PIU)
                 (DLTU) (DLTU) (SGU) (DLTG) (DLTG) (SGG) (PHIG)
                 (PHIG) (PIG) (PIG) (PIU) (PIU) (DLTG) (DLTG) (SGU)
                 (SGG) (PIG) (PIG) (SGU) (PIU) (PIU) (DLTU) (DLTU)
                 (SGG) (PIG) (PIG) (SGU) (PHIU) (PHIU) (SGG) (DLTG)
                 (DLTG) (PIU) (PIU) (SGU) (PHIG) (PHIG) (PIG) (PIG)
                 (DLTU) (DLTU) (PIU) (PIU) (SGG) (DLTG) (DLTG)
                 (SGG) (PIG) (PIG) (SGU) (PIU) (PIU) (SGU) (DLTU)
                 (DLTU) (PIG) (PIG) (SGU) (SGG)
 The electronic state of the initial guess is 1-SGG.
 Generating alternative initial guess.
 ExpMin= 2.36D-02 ExpMax= 8.26D+01 ExpMxC= 8.26D+01 IAcc=3 IRadAn=         5 AccDes= 0.00D+00
 Harris functional with IExCor=  205 and IRadAn=       5 diagonalized for initial guess.
 HarFok:  IExCor=  205 AccDes= 0.00D+00 IRadAn=         5 IDoV= 1 UseB2=F ITyADJ=14
 ICtDFT=  3500011 ScaDFX=  1.000000  1.000000  1.000000  1.000000
 FoFCou: FMM=F IPFlag=           0 FMFlag=      100000 FMFlg1=           0
         NFxFlg=           0 DoJE=T BraDBF=F KetDBF=T FulRan=T
         wScrn=  0.000000 ICntrl=       500 IOpCl=  0 I1Cent=   200000004 NGrid=           0
         NMat0=    1 NMatS0=      1 NMatT0=    0 NMatD0=    1 NMtDS0=    0 NMtDT0=    0
 Petite list used in FoFCou.
 Harris En= -1.13880112730446    
 Leave Link  401 at Tue Aug 13 16:18:21 2024, MaxMem=  1310720000 cpu:               1.8 elap:               0.2
 (Enter /opt/cluster/programs/g16-c.01/g16/l502.exe)
 Keep R1 ints in memory in symmetry-blocked form, NReq=13066297.
 FoFCou: FMM=F IPFlag=           0 FMFlag=           0 FMFlg1=           0
         NFxFlg=           0 DoJE=F BraDBF=F KetDBF=F FulRan=T
         wScrn=  0.000000 ICntrl=       600 IOpCl=  0 I1Cent=           0 NGrid=           0
         NMat0=    1 NMatS0=   4278 NMatT0=    0 NMatD0=    1 NMtDS0=    0 NMtDT0=    0
 Petite list used in FoFCou.
 Closed shell SCF:
 Using DIIS extrapolation, IDIIS=  1040.
 NGot=  1310720000 LenX=  1309507963 LenY=  1309495422
 Requested convergence on RMS density matrix=1.00D-08 within 128 cycles.
 Requested convergence on MAX density matrix=1.00D-06.
 Requested convergence on             energy=1.00D-06.
 No special actions if energy rises.

 Cycle   1  Pass 1  IDiag  1:
 E= -1.07217775603205    
 DIIS: error= 2.21D-03 at cycle   1 NSaved=   1.
 NSaved= 1 IEnMin= 1 EnMin= -1.07217775603205     IErMin= 1 ErrMin= 2.21D-03
 ErrMax= 2.21D-03  0.00D+00 EMaxC= 1.00D-01 BMatC= 5.59D-05 BMatP= 5.59D-05
 IDIUse=3 WtCom= 9.78D-01 WtEn= 2.21D-02
 Coeff-Com:  0.100D+01
 Coeff-En:   0.100D+01
 Coeff:      0.100D+01
 Gap=     0.726 Goal=   None    Shift=    0.000
 GapD=    0.726 DampG=2.000 DampE=1.000 DampFc=2.0000 IDamp=-1.
 RMSDP=1.81D-05 MaxDP=3.69D-04              OVMax= 2.88D-03

 Cycle   2  Pass 1  IDiag  1:
 E= -1.07221117725337     Delta-E=       -0.000033421221 Rises=F Damp=F
 DIIS: error= 2.36D-04 at cycle   2 NSaved=   2.
 NSaved= 2 IEnMin= 2 EnMin= -1.07221117725337     IErMin= 2 ErrMin= 2.36D-04
 ErrMax= 2.36D-04  0.00D+00 EMaxC= 1.00D-01 BMatC= 3.86D-07 BMatP= 5.59D-05
 IDIUse=3 WtCom= 9.98D-01 WtEn= 2.36D-03
 Coeff-Com: -0.739D-01 0.107D+01
 Coeff-En:   0.000D+00 0.100D+01
 Coeff:     -0.738D-01 0.107D+01
 Gap=     0.723 Goal=   None    Shift=    0.000
 RMSDP=2.82D-06 MaxDP=5.80D-05 DE=-3.34D-05 OVMax= 4.44D-04

 Cycle   3  Pass 1  IDiag  1:
 E= -1.07221168266637     Delta-E=       -0.000000505413 Rises=F Damp=F
 DIIS: error= 1.63D-05 at cycle   3 NSaved=   3.
 NSaved= 3 IEnMin= 3 EnMin= -1.07221168266637     IErMin= 3 ErrMin= 1.63D-05
 ErrMax= 1.63D-05  0.00D+00 EMaxC= 1.00D-01 BMatC= 3.96D-09 BMatP= 3.86D-07
 IDIUse=1 WtCom= 1.00D+00 WtEn= 0.00D+00
 Coeff-Com:  0.135D-01-0.199D+00 0.119D+01
 Coeff:      0.135D-01-0.199D+00 0.119D+01
 Gap=     0.723 Goal=   None    Shift=    0.000
 RMSDP=6.12D-07 MaxDP=1.08D-05 DE=-5.05D-07 OVMax= 6.42D-05

 Cycle   4  Pass 1  IDiag  1:
 E= -1.07221169038370     Delta-E=       -0.000000007717 Rises=F Damp=F
 DIIS: error= 2.05D-06 at cycle   4 NSaved=   4.
 NSaved= 4 IEnMin= 4 EnMin= -1.07221169038370     IErMin= 4 ErrMin= 2.05D-06
 ErrMax= 2.05D-06  0.00D+00 EMaxC= 1.00D-01 BMatC= 3.53D-11 BMatP= 3.96D-09
 IDIUse=1 WtCom= 1.00D+00 WtEn= 0.00D+00
 Coeff-Com: -0.192D-02 0.303D-01-0.223D+00 0.119D+01
 Coeff:     -0.192D-02 0.303D-01-0.223D+00 0.119D+01
 Gap=     0.723 Goal=   None    Shift=    0.000
 RMSDP=9.40D-08 MaxDP=2.76D-06 DE=-7.72D-09 OVMax= 6.78D-06

 Cycle   5  Pass 1  IDiag  1:
 E= -1.07221169046013     Delta-E=       -0.000000000076 Rises=F Damp=F
 DIIS: error= 8.91D-08 at cycle   5 NSaved=   5.
 NSaved= 5 IEnMin= 5 EnMin= -1.07221169046013     IErMin= 5 ErrMin= 8.91D-08
 ErrMax= 8.91D-08  0.00D+00 EMaxC= 1.00D-01 BMatC= 1.29D-13 BMatP= 3.53D-11
 IDIUse=1 WtCom= 1.00D+00 WtEn= 0.00D+00
 Coeff-Com:  0.233D-03-0.374D-02 0.289D-01-0.195D+00 0.117D+01
 Coeff:      0.233D-03-0.374D-02 0.289D-01-0.195D+00 0.117D+01
 Gap=     0.723 Goal=   None    Shift=    0.000
 RMSDP=7.59D-09 MaxDP=2.32D-07 DE=-7.64D-11 OVMax= 4.54D-07

 SCF Done:  E(RHF) =  -1.07221169046     A.U. after    5 cycles
            NFock=  5  Conv=0.76D-08     -V/T= 1.7455
 KE= 1.438217097986D+00 PE=-4.302044794032D+00 EE= 7.540136312323D-01
 Leave Link  502 at Tue Aug 13 16:18:21 2024, MaxMem=  1310720000 cpu:               2.9 elap:               0.4
 (Enter /opt/cluster/programs/g16-c.01/g16/l508.exe)
 QCSCF skips out because SCF is already converged.
 Leave Link  508 at Tue Aug 13 16:18:21 2024, MaxMem=  1310720000 cpu:               0.0 elap:               0.0
 (Enter /opt/cluster/programs/g16-c.01/g16/l801.exe)
 Windowed orbitals will be sorted by symmetry type.
 Range of M.O.s used for correlation:     1    92
 NBasis=    92 NAE=     1 NBE=     1 NFC=     0 NFV=     0
 NROrb=     92 NOA=     1 NOB=     1 NVA=    91 NVB=    91

 **** Warning!!: The largest alpha MO coefficient is  0.15933535D+03

 Leave Link  801 at Tue Aug 13 16:18:21 2024, MaxMem=  1310720000 cpu:               0.3 elap:               0.0
 (Enter /opt/cluster/programs/g16-c.01/g16/l804.exe)
 Closed-shell transformation, MDV=  1310720000 ITran=4 ISComp=2.
 Semi-Direct transformation.
 ModeAB=           4 MOrb=             1 LenV=    1310341315
 LASXX=        49960 LTotXX=       49960 LenRXX=      102232
 LTotAB=       52272 MaxLAS=      310408 LenRXY=           0
 NonZer=      152192 LenScr=      785920 LnRSAI=      310408
 LnScr1=      930816 LExtra=           0 Total=      2129376
 MaxDsk=          -1 SrtSym=           T ITran=            4
 DoSDTr:  NPSUse=  8
 JobTyp=0 Pass  1:  I=   1 to   1.
 (rs|ai) integrals will be sorted in core.
 Complete sort for first half transformation.
 First half transformation complete.
 Complete sort for second half transformation.
 Second half transformation complete.
 Spin components of T(2) and E(2):
     alpha-alpha T2 =       0.0000000000D+00 E2=      0.0000000000D+00
     alpha-beta  T2 =       0.8104422287D-02 E2=     -0.3290330229D-01
     beta-beta   T2 =       0.0000000000D+00 E2=      0.0000000000D+00
 ANorm=    0.1004044034D+01
 E2 =    -0.3290330229D-01 EUMP2 =    -0.11051149927515D+01
 Leave Link  804 at Tue Aug 13 16:18:21 2024, MaxMem=  1310720000 cpu:               1.7 elap:               0.2
 (Enter /opt/cluster/programs/g16-c.01/g16/l913.exe)
 CIDS:  MDV=  1310720000.
 IFCWin=0 IBDFC=1 NFBD=     0     0 NFCmp=     0     0 NFFFC=     0     0
 Using DD3R+UMP44R for 1st iteration.
 Using DD4RQ for 2nd and later iterations.
 Keep R2 and R3 ints in memory in symmetry-blocked form, NReq=13069217.
 FoFCou: FMM=F IPFlag=           0 FMFlag=           0 FMFlg1=           0
         NFxFlg=           0 DoJE=F BraDBF=F KetDBF=F FulRan=T
         wScrn=  0.000000 ICntrl=       600 IOpCl=  0 I1Cent=           0 NGrid=           0
         NMat0=    1 NMatS0=   4278 NMatT0=    0 NMatD0=    1 NMtDS0=    0 NMtDT0=    0
 Petite list used in FoFCou.
 CIDS: In Core Option IDoMem=           1.
 CCSD(T)
 =======
 Iterations=  50 Convergence= 0.100D-06
 Produce multiple copies of IABC intergrals
 Iteration Nr.   1
 **********************
 DD1Dir will call FoFMem   1 times, MxPair=         2
 NAB=     1 NAA=     0 NBB=     0.
 MP4(R+Q)=  0.26666226D-03
 Maximum subspace dimension=  5
 A-vector RMS=  8.2687094D-04 Max=  3.4784986D-03 conv= 1.00D-05.
 RLE energy=       -0.0376959551
 E3=       -0.44510519D-02        EUMP3=      -0.11095660447D+01
 E4(DQ)=   -0.10377987D-02        UMP4(DQ)=   -0.11106038433D+01
 E4(SDQ)=  -0.10659661D-02        UMP4(SDQ)=  -0.11106320108D+01
 VARIATIONAL ENERGIES WITH THE FIRST-ORDER WAVEFUNCTION:
 DE(Corr)= -0.37086619E-01 E(Corr)=     -1.1092983091    
 NORM(A)=   0.10058663D+01
 Iteration Nr.   2
 **********************
 DD1Dir will call FoFMem   1 times, MxPair=         2
 NAB=     1 NAA=     0 NBB=     0.
 A-vector RMS=  1.1177965D-04 Max=  8.3328194D-04 conv= 1.00D-05.
 RLE energy=       -0.0387390877
 DE(Corr)= -0.38459430E-01 E(CORR)=     -1.1106711204     Delta=-1.37D-03
 NORM(A)=   0.10063328D+01
 Iteration Nr.   3
 **********************
 DD1Dir will call FoFMem   1 times, MxPair=         2
 NAB=     1 NAA=     0 NBB=     0.
 A-vector RMS=  4.4368922D-05 Max=  1.1506620D-04 conv= 1.00D-05.
 RLE energy=       -0.0387485685
 DE(Corr)= -0.38735812E-01 E(CORR)=     -1.1109475020     Delta=-2.76D-04
 NORM(A)=   0.10063538D+01
 Iteration Nr.   4
 **********************
 DD1Dir will call FoFMem   1 times, MxPair=         2
 NAB=     1 NAA=     0 NBB=     0.
 A-vector RMS=  7.4168025D-06 Max=  3.0430815D-05 conv= 1.00D-05.
 RLE energy=       -0.0387507024
 DE(Corr)= -0.38749847E-01 E(CORR)=     -1.1109615378     Delta=-1.40D-05
 NORM(A)=   0.10063573D+01
 Iteration Nr.   5
 **********************
 DD1Dir will call FoFMem   1 times, MxPair=         2
 NAB=     1 NAA=     0 NBB=     0.
 A-vector RMS=  1.7988291D-06 Max=  4.7819260D-06 conv= 1.00D-05.
 RLE energy=       -0.0387506731
 DE(Corr)= -0.38750614E-01 E(CORR)=     -1.1109623046     Delta=-7.67D-07
 NORM(A)=   0.10063574D+01
 Iteration Nr.   6
 **********************
 DD1Dir will call FoFMem   1 times, MxPair=         2
 NAB=     1 NAA=     0 NBB=     0.
 A-vector RMS=  2.8783616D-07 Max=  8.9008933D-07 conv= 1.00D-05.
 RLE energy=       -0.0387506150
 DE(Corr)= -0.38750629E-01 E(CORR)=     -1.1109623198     Delta=-1.52D-08
 NORM(A)=   0.10063574D+01
 CI/CC converged in    6 iterations to DelEn=-1.52D-08 Conv= 1.00D-07 ErrA1= 2.88D-07 Conv= 1.00D-05
 Wavefunction amplitudes converged. E(Corr)=     -1.1109623198    
 Largest amplitude= 2.39D-02
 Time for triples=        0.00 seconds.
 T4(CCSD)=  0.00000000D+00
 T5(CCSD)=  0.00000000D+00
 CCSD(T)= -0.11109623198D+01
 Discarding MO integrals.
 Leave Link  913 at Tue Aug 13 16:18:22 2024, MaxMem=  1310720000 cpu:               3.1 elap:               0.4
 (Enter /opt/cluster/programs/g16-c.01/g16/l108.exe)
 Variable Step   Value    
 -------- ---- -----------
     1       2    0.982658
 Leave Link  108 at Tue Aug 13 16:18:23 2024, MaxMem=  1310720000 cpu:               0.1 elap:               0.0
 (Enter /opt/cluster/programs/g16-c.01/g16/l202.exe)
 ---------------------------------------------------------------------------------------------------
                            Z-MATRIX (ANGSTROMS AND DEGREES)
   CD    Cent   Atom    N1       Length/X        N2       Alpha/Y        N3        Beta/Z          J
 ---------------------------------------------------------------------------------------------------
      1      1  H 
      2      2  H        1   0.520000(     1)
 ---------------------------------------------------------------------------------------------------
                         Z-Matrix orientation:                         
 ---------------------------------------------------------------------
 Center     Atomic      Atomic             Coordinates (Angstroms)
 Number     Number       Type             X           Y           Z
 ---------------------------------------------------------------------
      1          1           0        0.000000    0.000000    0.000000
      2          1           0        0.000000    0.000000    0.520000
 ---------------------------------------------------------------------
 Stoichiometry    H2
 Framework group  D*H[C*(H.H)]
 Deg. of freedom     1
 Full point group                 D*H     NOp   8
 RotChk:  IX=0 Diff= 0.00D+00
 Largest Abelian subgroup         D2H     NOp   8
 Largest concise Abelian subgroup C2      NOp   2
                         Standard orientation:                         
 ---------------------------------------------------------------------
 Center     Atomic      Atomic             Coordinates (Angstroms)
 Number     Number       Type             X           Y           Z
 ---------------------------------------------------------------------
      1          1           0        0.000000    0.000000    0.260000
      2          1           0        0.000000    0.000000   -0.260000
 ---------------------------------------------------------------------
 Rotational constants (GHZ):           0.0000000        3708.9874591        3708.9874591
 Leave Link  202 at Tue Aug 13 16:18:23 2024, MaxMem=  1310720000 cpu:               0.0 elap:               0.0
 (Enter /opt/cluster/programs/g16-c.01/g16/l301.exe)
 Standard basis: Aug-CC-pVQZ (5D, 7F)
 Ernie: Thresh=  0.10000D-02 Tol=  0.10000D-05 Strict=F.
 There are    24 symmetry adapted cartesian basis functions of AG  symmetry.
 There are     5 symmetry adapted cartesian basis functions of B1G symmetry.
 There are    13 symmetry adapted cartesian basis functions of B2G symmetry.
 There are    13 symmetry adapted cartesian basis functions of B3G symmetry.
 There are     5 symmetry adapted cartesian basis functions of AU  symmetry.
 There are    24 symmetry adapted cartesian basis functions of B1U symmetry.
 There are    13 symmetry adapted cartesian basis functions of B2U symmetry.
 There are    13 symmetry adapted cartesian basis functions of B3U symmetry.
 There are    19 symmetry adapted basis functions of AG  symmetry.
 There are     5 symmetry adapted basis functions of B1G symmetry.
 There are    11 symmetry adapted basis functions of B2G symmetry.
 There are    11 symmetry adapted basis functions of B3G symmetry.
 There are     5 symmetry adapted basis functions of AU  symmetry.
 There are    19 symmetry adapted basis functions of B1U symmetry.
 There are    11 symmetry adapted basis functions of B2U symmetry.
 There are    11 symmetry adapted basis functions of B3U symmetry.
    92 basis functions,   114 primitive gaussians,   110 cartesian basis functions
     1 alpha electrons        1 beta electrons
       nuclear repulsion energy         1.0176484825 Hartrees.
 IExCor=    0 DFT=F Ex=HF Corr=None ExCW=0 ScaHFX=  1.000000
 ScaDFX=  1.000000  1.000000  1.000000  1.000000 ScalE2=  1.000000  1.000000
 IRadAn=      5 IRanWt=     -1 IRanGd=            0 ICorTp=0 IEmpDi=  4
 NAtoms=    2 NActive=    2 NUniq=    1 SFac= 4.00D+00 NAtFMM=   60 NAOKFM=F Big=F
 Integral buffers will be    131072 words long.
 Raffenetti 1 integral format.
 Two-electron integral symmetry is turned on.
 Leave Link  301 at Tue Aug 13 16:18:23 2024, MaxMem=  1310720000 cpu:               0.3 elap:               0.0
 (Enter /opt/cluster/programs/g16-c.01/g16/l302.exe)
 NPDir=0 NMtPBC=     1 NCelOv=     1 NCel=       1 NClECP=     1 NCelD=      1
         NCelK=      1 NCelE2=     1 NClLst=     1 CellRange=     0.0.
 One-electron integrals computed using PRISM.
 One-electron integral symmetry used in STVInt
 NBasis=    92 RedAO= T EigKep=  3.90D-06  NBF=    19     5    11    11     5    19    11    11
 NBsUse=    92 1.00D-06 EigRej= -1.00D+00 NBFU=    19     5    11    11     5    19    11    11
 Leave Link  302 at Tue Aug 13 16:18:23 2024, MaxMem=  1310720000 cpu:               1.0 elap:               0.1
 (Enter /opt/cluster/programs/g16-c.01/g16/l303.exe)
 DipDrv:  MaxL=1.
 Leave Link  303 at Tue Aug 13 16:18:23 2024, MaxMem=  1310720000 cpu:               0.3 elap:               0.0
 (Enter /opt/cluster/programs/g16-c.01/g16/l401.exe)
 Initial guess from the checkpoint file:  "h2.chk"
 B after Tr=     0.000000    0.000000    0.000000
         Rot=    1.000000    0.000000    0.000000    0.000000 Ang=   0.00 deg.
 Guess basis will be translated and rotated to current coordinates.
 JPrj=2 DoOrth=T DoCkMO=T.
 Initial guess orbital symmetries:
       Occupied  (SGG)
       Virtual   (SGG) (SGU) (SGU) (PIU) (PIU) (SGG) (PIG) (PIG)
                 (SGG) (SGU) (DLTG) (DLTG) (SGU) (PIG) (PIG) (SGG)
                 (PIU) (PIU) (DLTU) (DLTU) (PIU) (PIU) (SGU) (SGG)
                 (SGU) (PIG) (PIG) (PHIU) (PHIU) (SGG) (PIU) (PIU)
                 (DLTU) (DLTU) (SGU) (SGG) (DLTG) (DLTG) (PHIG)
                 (PHIG) (PIG) (PIG) (PIU) (PIU) (DLTG) (DLTG) (SGU)
                 (SGG) (PIG) (PIG) (SGU) (PIU) (PIU) (DLTU) (DLTU)
                 (SGG) (PIG) (PIG) (SGU) (SGG) (PHIU) (PHIU) (DLTG)
                 (DLTG) (PIU) (PIU) (SGU) (PHIG) (PHIG) (PIG) (PIG)
                 (DLTU) (DLTU) (PIU) (PIU) (SGG) (DLTG) (DLTG)
                 (SGG) (PIG) (PIG) (SGU) (PIU) (PIU) (SGU) (DLTU)
                 (DLTU) (PIG) (PIG) (SGU) (SGG)
 The electronic state of the initial guess is 1-SGG.
 Generating alternative initial guess.
 ExpMin= 2.36D-02 ExpMax= 8.26D+01 ExpMxC= 8.26D+01 IAcc=3 IRadAn=         5 AccDes= 0.00D+00
 Harris functional with IExCor=  205 and IRadAn=       5 diagonalized for initial guess.
 HarFok:  IExCor=  205 AccDes= 0.00D+00 IRadAn=         5 IDoV= 1 UseB2=F ITyADJ=14
 ICtDFT=  3500011 ScaDFX=  1.000000  1.000000  1.000000  1.000000
 FoFCou: FMM=F IPFlag=           0 FMFlag=      100000 FMFlg1=           0
         NFxFlg=           0 DoJE=T BraDBF=F KetDBF=T FulRan=T
         wScrn=  0.000000 ICntrl=       500 IOpCl=  0 I1Cent=   200000004 NGrid=           0
         NMat0=    1 NMatS0=      1 NMatT0=    0 NMatD0=    1 NMtDS0=    0 NMtDT0=    0
 Petite list used in FoFCou.
 Harris En= -1.14469831861733    
 Leave Link  401 at Tue Aug 13 16:18:23 2024, MaxMem=  1310720000 cpu:               1.8 elap:               0.2
 (Enter /opt/cluster/programs/g16-c.01/g16/l502.exe)
 Keep R1 ints in memory in symmetry-blocked form, NReq=13066297.
 FoFCou: FMM=F IPFlag=           0 FMFlag=           0 FMFlg1=           0
         NFxFlg=           0 DoJE=F BraDBF=F KetDBF=F FulRan=T
         wScrn=  0.000000 ICntrl=       600 IOpCl=  0 I1Cent=           0 NGrid=           0
         NMat0=    1 NMatS0=   4278 NMatT0=    0 NMatD0=    1 NMtDS0=    0 NMtDT0=    0
 Petite list used in FoFCou.
 Closed shell SCF:
 Using DIIS extrapolation, IDIIS=  1040.
 NGot=  1310720000 LenX=  1309507963 LenY=  1309495422
 Requested convergence on RMS density matrix=1.00D-08 within 128 cycles.
 Requested convergence on MAX density matrix=1.00D-06.
 Requested convergence on             energy=1.00D-06.
 No special actions if energy rises.

 Cycle   1  Pass 1  IDiag  1:
 E= -1.07906656468524    
 DIIS: error= 2.17D-03 at cycle   1 NSaved=   1.
 NSaved= 1 IEnMin= 1 EnMin= -1.07906656468524     IErMin= 1 ErrMin= 2.17D-03
 ErrMax= 2.17D-03  0.00D+00 EMaxC= 1.00D-01 BMatC= 5.39D-05 BMatP= 5.39D-05
 IDIUse=3 WtCom= 9.78D-01 WtEn= 2.17D-02
 Coeff-Com:  0.100D+01
 Coeff-En:   0.100D+01
 Coeff:      0.100D+01
 Gap=     0.721 Goal=   None    Shift=    0.000
 GapD=    0.721 DampG=2.000 DampE=1.000 DampFc=2.0000 IDamp=-1.
 RMSDP=1.80D-05 MaxDP=3.70D-04              OVMax= 2.85D-03

 Cycle   2  Pass 1  IDiag  1:
 E= -1.07909899177243     Delta-E=       -0.000032427087 Rises=F Damp=F
 DIIS: error= 2.34D-04 at cycle   2 NSaved=   2.
 NSaved= 2 IEnMin= 2 EnMin= -1.07909899177243     IErMin= 2 ErrMin= 2.34D-04
 ErrMax= 2.34D-04  0.00D+00 EMaxC= 1.00D-01 BMatC= 3.80D-07 BMatP= 5.39D-05
 IDIUse=3 WtCom= 9.98D-01 WtEn= 2.34D-03
 Coeff-Com: -0.747D-01 0.107D+01
 Coeff-En:   0.000D+00 0.100D+01
 Coeff:     -0.746D-01 0.107D+01
 Gap=     0.719 Goal=   None    Shift=    0.000
 RMSDP=2.84D-06 MaxDP=5.85D-05 DE=-3.24D-05 OVMax= 4.43D-04

 Cycle   3  Pass 1  IDiag  1:
 E= -1.07909949310569     Delta-E=       -0.000000501333 Rises=F Damp=F
 DIIS: error= 1.62D-05 at cycle   3 NSaved=   3.
 NSaved= 3 IEnMin= 3 EnMin= -1.07909949310569     IErMin= 3 ErrMin= 1.62D-05
 ErrMax= 1.62D-05  0.00D+00 EMaxC= 1.00D-01 BMatC= 3.94D-09 BMatP= 3.80D-07
 IDIUse=1 WtCom= 1.00D+00 WtEn= 0.00D+00
 Coeff-Com:  0.137D-01-0.200D+00 0.119D+01
 Coeff:      0.137D-01-0.200D+00 0.119D+01
 Gap=     0.719 Goal=   None    Shift=    0.000
 RMSDP=6.17D-07 MaxDP=1.11D-05 DE=-5.01D-07 OVMax= 6.45D-05

 Cycle   4  Pass 1  IDiag  1:
 E= -1.07909950083844     Delta-E=       -0.000000007733 Rises=F Damp=F
 DIIS: error= 2.04D-06 at cycle   4 NSaved=   4.
 NSaved= 4 IEnMin= 4 EnMin= -1.07909950083844     IErMin= 4 ErrMin= 2.04D-06
 ErrMax= 2.04D-06  0.00D+00 EMaxC= 1.00D-01 BMatC= 3.51D-11 BMatP= 3.94D-09
 IDIUse=1 WtCom= 1.00D+00 WtEn= 0.00D+00
 Coeff-Com: -0.195D-02 0.306D-01-0.224D+00 0.120D+01
 Coeff:     -0.195D-02 0.306D-01-0.224D+00 0.120D+01
 Gap=     0.719 Goal=   None    Shift=    0.000
 RMSDP=9.46D-08 MaxDP=2.81D-06 DE=-7.73D-09 OVMax= 6.80D-06

 Cycle   5  Pass 1  IDiag  1:
 E= -1.07909950091492     Delta-E=       -0.000000000076 Rises=F Damp=F
 DIIS: error= 8.79D-08 at cycle   5 NSaved=   5.
 NSaved= 5 IEnMin= 5 EnMin= -1.07909950091492     IErMin= 5 ErrMin= 8.79D-08
 ErrMax= 8.79D-08  0.00D+00 EMaxC= 1.00D-01 BMatC= 1.28D-13 BMatP= 3.51D-11
 IDIUse=1 WtCom= 1.00D+00 WtEn= 0.00D+00
 Coeff-Com:  0.238D-03-0.379D-02 0.291D-01-0.195D+00 0.117D+01
 Coeff:      0.238D-03-0.379D-02 0.291D-01-0.195D+00 0.117D+01
 Gap=     0.719 Goal=   None    Shift=    0.000
 RMSDP=7.62D-09 MaxDP=2.32D-07 DE=-7.65D-11 OVMax= 4.54D-07

 SCF Done:  E(RHF) =  -1.07909950091     A.U. after    5 cycles
            NFock=  5  Conv=0.76D-08     -V/T= 1.7594
 KE= 1.420927648820D+00 PE=-4.266949064181D+00 EE= 7.492734319076D-01
 Leave Link  502 at Tue Aug 13 16:18:24 2024, MaxMem=  1310720000 cpu:               2.9 elap:               0.4
 (Enter /opt/cluster/programs/g16-c.01/g16/l508.exe)
 QCSCF skips out because SCF is already converged.
 Leave Link  508 at Tue Aug 13 16:18:24 2024, MaxMem=  1310720000 cpu:               0.0 elap:               0.0
 (Enter /opt/cluster/programs/g16-c.01/g16/l801.exe)
 Windowed orbitals will be sorted by symmetry type.
 Range of M.O.s used for correlation:     1    92
 NBasis=    92 NAE=     1 NBE=     1 NFC=     0 NFV=     0
 NROrb=     92 NOA=     1 NOB=     1 NVA=    91 NVB=    91

 **** Warning!!: The largest alpha MO coefficient is  0.15922241D+03

 Leave Link  801 at Tue Aug 13 16:18:24 2024, MaxMem=  1310720000 cpu:               0.3 elap:               0.0
 (Enter /opt/cluster/programs/g16-c.01/g16/l804.exe)
 Closed-shell transformation, MDV=  1310720000 ITran=4 ISComp=2.
 Semi-Direct transformation.
 ModeAB=           4 MOrb=             1 LenV=    1310341315
 LASXX=        49960 LTotXX=       49960 LenRXX=      102232
 LTotAB=       52272 MaxLAS=      310408 LenRXY=           0
 NonZer=      152192 LenScr=      785920 LnRSAI=      310408
 LnScr1=      930816 LExtra=           0 Total=      2129376
 MaxDsk=          -1 SrtSym=           T ITran=            4
 DoSDTr:  NPSUse=  8
 JobTyp=0 Pass  1:  I=   1 to   1.
 (rs|ai) integrals will be sorted in core.
 Complete sort for first half transformation.
 First half transformation complete.
 Complete sort for second half transformation.
 Second half transformation complete.
 Spin components of T(2) and E(2):
     alpha-alpha T2 =       0.0000000000D+00 E2=      0.0000000000D+00
     alpha-beta  T2 =       0.8187878697D-02 E2=     -0.3289686952D-01
     beta-beta   T2 =       0.0000000000D+00 E2=      0.0000000000D+00
 ANorm=    0.1004085593D+01
 E2 =    -0.3289686952D-01 EUMP2 =    -0.11119963704393D+01
 Leave Link  804 at Tue Aug 13 16:18:24 2024, MaxMem=  1310720000 cpu:               1.7 elap:               0.2
 (Enter /opt/cluster/programs/g16-c.01/g16/l913.exe)
 CIDS:  MDV=  1310720000.
 IFCWin=0 IBDFC=1 NFBD=     0     0 NFCmp=     0     0 NFFFC=     0     0
 Using DD3R+UMP44R for 1st iteration.
 Using DD4RQ for 2nd and later iterations.
 Keep R2 and R3 ints in memory in symmetry-blocked form, NReq=13069217.
 FoFCou: FMM=F IPFlag=           0 FMFlag=           0 FMFlg1=           0
         NFxFlg=           0 DoJE=F BraDBF=F KetDBF=F FulRan=T
         wScrn=  0.000000 ICntrl=       600 IOpCl=  0 I1Cent=           0 NGrid=           0
         NMat0=    1 NMatS0=   4278 NMatT0=    0 NMatD0=    1 NMtDS0=    0 NMtDT0=    0
 Petite list used in FoFCou.
 CIDS: In Core Option IDoMem=           1.
 CCSD(T)
 =======
 Iterations=  50 Convergence= 0.100D-06
 Produce multiple copies of IABC intergrals
 Iteration Nr.   1
 **********************
 DD1Dir will call FoFMem   1 times, MxPair=         2
 NAB=     1 NAA=     0 NBB=     0.
 MP4(R+Q)=  0.26935558D-03
 Maximum subspace dimension=  5
 A-vector RMS=  8.4619873D-04 Max=  3.4788493D-03 conv= 1.00D-05.
 RLE energy=       -0.0377081301
 E3=       -0.44678483D-02        EUMP3=      -0.11164642188D+01
 E4(DQ)=   -0.10495083D-02        UMP4(DQ)=   -0.11175137271D+01
 E4(SDQ)=  -0.10789211D-02        UMP4(SDQ)=  -0.11175431398D+01
 VARIATIONAL ENERGIES WITH THE FIRST-ORDER WAVEFUNCTION:
 DE(Corr)= -0.37094251E-01 E(Corr)=     -1.1161937521    
 NORM(A)=   0.10059390D+01
 Iteration Nr.   2
 **********************
 DD1Dir will call FoFMem   1 times, MxPair=         2
 NAB=     1 NAA=     0 NBB=     0.
 A-vector RMS=  1.1665271D-04 Max=  8.7042479D-04 conv= 1.00D-05.
 RLE energy=       -0.0387697495
 DE(Corr)= -0.38483375E-01 E(CORR)=     -1.1175828759     Delta=-1.39D-03
 NORM(A)=   0.10064198D+01
 Iteration Nr.   3
 **********************
 DD1Dir will call FoFMem   1 times, MxPair=         2
 NAB=     1 NAA=     0 NBB=     0.
 A-vector RMS=  4.4614659D-05 Max=  1.2150116D-04 conv= 1.00D-05.
 RLE energy=       -0.0387796749
 DE(Corr)= -0.38766343E-01 E(CORR)=     -1.1178658438     Delta=-2.83D-04
 NORM(A)=   0.10064418D+01
 Iteration Nr.   4
 **********************
 DD1Dir will call FoFMem   1 times, MxPair=         2
 NAB=     1 NAA=     0 NBB=     0.
 A-vector RMS=  7.4634855D-06 Max=  3.1572749D-05 conv= 1.00D-05.
 RLE energy=       -0.0387819378
 DE(Corr)= -0.38781024E-01 E(CORR)=     -1.1178805250     Delta=-1.47D-05
 NORM(A)=   0.10064455D+01
 Iteration Nr.   5
 **********************
 DD1Dir will call FoFMem   1 times, MxPair=         2
 NAB=     1 NAA=     0 NBB=     0.
 A-vector RMS=  1.7809126D-06 Max=  4.9800425D-06 conv= 1.00D-05.
 RLE energy=       -0.0387818989
 DE(Corr)= -0.38781839E-01 E(CORR)=     -1.1178813402     Delta=-8.15D-07
 NORM(A)=   0.10064456D+01
 Iteration Nr.   6
 **********************
 DD1Dir will call FoFMem   1 times, MxPair=         2
 NAB=     1 NAA=     0 NBB=     0.
 A-vector RMS=  3.0529530D-07 Max=  8.8254357D-07 conv= 1.00D-05.
 RLE energy=       -0.0387818387
 DE(Corr)= -0.38781853E-01 E(CORR)=     -1.1178813543     Delta=-1.41D-08
 NORM(A)=   0.10064455D+01
 CI/CC converged in    6 iterations to DelEn=-1.41D-08 Conv= 1.00D-07 ErrA1= 3.05D-07 Conv= 1.00D-05
 Wavefunction amplitudes converged. E(Corr)=     -1.1178813543    
 Largest amplitude= 2.38D-02
 Time for triples=        0.00 seconds.
 T4(CCSD)=  0.00000000D+00
 T5(CCSD)=  0.00000000D+00
 CCSD(T)= -0.11178813543D+01
 Discarding MO integrals.
 Leave Link  913 at Tue Aug 13 16:18:24 2024, MaxMem=  1310720000 cpu:               3.1 elap:               0.4
 (Enter /opt/cluster/programs/g16-c.01/g16/l108.exe)
 Variable Step   Value    
 -------- ---- -----------
     1       3    1.001555
 Leave Link  108 at Tue Aug 13 16:18:24 2024, MaxMem=  1310720000 cpu:               0.1 elap:               0.0
 (Enter /opt/cluster/programs/g16-c.01/g16/l202.exe)
 ---------------------------------------------------------------------------------------------------
                            Z-MATRIX (ANGSTROMS AND DEGREES)
   CD    Cent   Atom    N1       Length/X        N2       Alpha/Y        N3        Beta/Z          J
 ---------------------------------------------------------------------------------------------------
      1      1  H 
      2      2  H        1   0.530000(     1)
 ---------------------------------------------------------------------------------------------------
                         Z-Matrix orientation:                         
 ---------------------------------------------------------------------
 Center     Atomic      Atomic             Coordinates (Angstroms)
 Number     Number       Type             X           Y           Z
 ---------------------------------------------------------------------
      1          1           0        0.000000    0.000000    0.000000
      2          1           0        0.000000    0.000000    0.530000
 ---------------------------------------------------------------------
 Stoichiometry    H2
 Framework group  D*H[C*(H.H)]
 Deg. of freedom     1
 Full point group                 D*H     NOp   8
 RotChk:  IX=0 Diff= 0.00D+00
 Largest Abelian subgroup         D2H     NOp   8
 Largest concise Abelian subgroup C2      NOp   2
                         Standard orientation:                         
 ---------------------------------------------------------------------
 Center     Atomic      Atomic             Coordinates (Angstroms)
 Number     Number       Type             X           Y           Z
 ---------------------------------------------------------------------
      1          1           0        0.000000    0.000000    0.265000
      2          1           0        0.000000    0.000000   -0.265000
 ---------------------------------------------------------------------
 Rotational constants (GHZ):           0.0000000        3570.3460624        3570.3460624
 Leave Link  202 at Tue Aug 13 16:18:25 2024, MaxMem=  1310720000 cpu:               0.0 elap:               0.0
 (Enter /opt/cluster/programs/g16-c.01/g16/l301.exe)
 Standard basis: Aug-CC-pVQZ (5D, 7F)
 Ernie: Thresh=  0.10000D-02 Tol=  0.10000D-05 Strict=F.
 There are    24 symmetry adapted cartesian basis functions of AG  symmetry.
 There are     5 symmetry adapted cartesian basis functions of B1G symmetry.
 There are    13 symmetry adapted cartesian basis functions of B2G symmetry.
 There are    13 symmetry adapted cartesian basis functions of B3G symmetry.
 There are     5 symmetry adapted cartesian basis functions of AU  symmetry.
 There are    24 symmetry adapted cartesian basis functions of B1U symmetry.
 There are    13 symmetry adapted cartesian basis functions of B2U symmetry.
 There are    13 symmetry adapted cartesian basis functions of B3U symmetry.
 There are    19 symmetry adapted basis functions of AG  symmetry.
 There are     5 symmetry adapted basis functions of B1G symmetry.
 There are    11 symmetry adapted basis functions of B2G symmetry.
 There are    11 symmetry adapted basis functions of B3G symmetry.
 There are     5 symmetry adapted basis functions of AU  symmetry.
 There are    19 symmetry adapted basis functions of B1U symmetry.
 There are    11 symmetry adapted basis functions of B2U symmetry.
 There are    11 symmetry adapted basis functions of B3U symmetry.
    92 basis functions,   114 primitive gaussians,   110 cartesian basis functions
     1 alpha electrons        1 beta electrons
       nuclear repulsion energy         0.9984475678 Hartrees.
 IExCor=    0 DFT=F Ex=HF Corr=None ExCW=0 ScaHFX=  1.000000
 ScaDFX=  1.000000  1.000000  1.000000  1.000000 ScalE2=  1.000000  1.000000
 IRadAn=      5 IRanWt=     -1 IRanGd=            0 ICorTp=0 IEmpDi=  4
 NAtoms=    2 NActive=    2 NUniq=    1 SFac= 4.00D+00 NAtFMM=   60 NAOKFM=F Big=F
 Integral buffers will be    131072 words long.
 Raffenetti 1 integral format.
 Two-electron integral symmetry is turned on.
 Leave Link  301 at Tue Aug 13 16:18:25 2024, MaxMem=  1310720000 cpu:               0.3 elap:               0.0
 (Enter /opt/cluster/programs/g16-c.01/g16/l302.exe)
 NPDir=0 NMtPBC=     1 NCelOv=     1 NCel=       1 NClECP=     1 NCelD=      1
         NCelK=      1 NCelE2=     1 NClLst=     1 CellRange=     0.0.
 One-electron integrals computed using PRISM.
 One-electron integral symmetry used in STVInt
 NBasis=    92 RedAO= T EigKep=  4.17D-06  NBF=    19     5    11    11     5    19    11    11
 NBsUse=    92 1.00D-06 EigRej= -1.00D+00 NBFU=    19     5    11    11     5    19    11    11
 Leave Link  302 at Tue Aug 13 16:18:25 2024, MaxMem=  1310720000 cpu:               1.0 elap:               0.1
 (Enter /opt/cluster/programs/g16-c.01/g16/l303.exe)
 DipDrv:  MaxL=1.
 Leave Link  303 at Tue Aug 13 16:18:25 2024, MaxMem=  1310720000 cpu:               0.3 elap:               0.0
 (Enter /opt/cluster/programs/g16-c.01/g16/l401.exe)
 Initial guess from the checkpoint file:  "h2.chk"
 B after Tr=     0.000000    0.000000    0.000000
         Rot=    1.000000    0.000000    0.000000    0.000000 Ang=   0.00 deg.
 Guess basis will be translated and rotated to current coordinates.
 JPrj=2 DoOrth=T DoCkMO=T.
 Initial guess orbital symmetries:
       Occupied  (SGG)
       Virtual   (SGG) (SGU) (SGU) (PIU) (PIU) (SGG) (PIG) (PIG)
                 (SGG) (SGU) (DLTG) (DLTG) (SGU) (PIG) (PIG) (SGG)
                 (PIU) (PIU) (DLTU) (DLTU) (PIU) (PIU) (SGU) (SGG)
                 (SGU) (PIG) (PIG) (PHIU) (PHIU) (SGG) (PIU) (PIU)
                 (DLTU) (DLTU) (SGU) (SGG) (DLTG) (DLTG) (PIG)
                 (PIG) (PHIG) (PHIG) (PIU) (PIU) (DLTG) (DLTG)
                 (SGU) (SGG) (PIG) (PIG) (SGU) (PIU) (PIU) (DLTU)
                 (DLTU) (SGG) (PIG) (PIG) (SGU) (SGG) (PHIU) (PHIU)
                 (DLTG) (DLTG) (PIU) (PIU) (SGU) (PHIG) (PHIG)
                 (PIG) (PIG) (DLTU) (DLTU) (PIU) (PIU) (SGG) (DLTG)
                 (DLTG) (SGG) (PIG) (PIG) (SGU) (PIU) (PIU) (SGU)
                 (DLTU) (DLTU) (PIG) (PIG) (SGU) (SGG)
 The electronic state of the initial guess is 1-SGG.
 Generating alternative initial guess.
 ExpMin= 2.36D-02 ExpMax= 8.26D+01 ExpMxC= 8.26D+01 IAcc=3 IRadAn=         5 AccDes= 0.00D+00
 Harris functional with IExCor=  205 and IRadAn=       5 diagonalized for initial guess.
 HarFok:  IExCor=  205 AccDes= 0.00D+00 IRadAn=         5 IDoV= 1 UseB2=F ITyADJ=14
 ICtDFT=  3500011 ScaDFX=  1.000000  1.000000  1.000000  1.000000
 FoFCou: FMM=F IPFlag=           0 FMFlag=      100000 FMFlg1=           0
         NFxFlg=           0 DoJE=T BraDBF=F KetDBF=T FulRan=T
         wScrn=  0.000000 ICntrl=       500 IOpCl=  0 I1Cent=   200000004 NGrid=           0
         NMat0=    1 NMatS0=      1 NMatT0=    0 NMatD0=    1 NMtDS0=    0 NMtDT0=    0
 Petite list used in FoFCou.
 Harris En= -1.15006341840519    
 Leave Link  401 at Tue Aug 13 16:18:25 2024, MaxMem=  1310720000 cpu:               1.8 elap:               0.2
 (Enter /opt/cluster/programs/g16-c.01/g16/l502.exe)
 Keep R1 ints in memory in symmetry-blocked form, NReq=13066297.
 FoFCou: FMM=F IPFlag=           0 FMFlag=           0 FMFlg1=           0
         NFxFlg=           0 DoJE=F BraDBF=F KetDBF=F FulRan=T
         wScrn=  0.000000 ICntrl=       600 IOpCl=  0 I1Cent=           0 NGrid=           0
         NMat0=    1 NMatS0=   4278 NMatT0=    0 NMatD0=    1 NMtDS0=    0 NMtDT0=    0
 Petite list used in FoFCou.
 Closed shell SCF:
 Using DIIS extrapolation, IDIIS=  1040.
 NGot=  1310720000 LenX=  1309507963 LenY=  1309495422
 Requested convergence on RMS density matrix=1.00D-08 within 128 cycles.
 Requested convergence on MAX density matrix=1.00D-06.
 Requested convergence on             energy=1.00D-06.
 No special actions if energy rises.

 Cycle   1  Pass 1  IDiag  1:
 E= -1.08537218050141    
 DIIS: error= 2.13D-03 at cycle   1 NSaved=   1.
 NSaved= 1 IEnMin= 1 EnMin= -1.08537218050141     IErMin= 1 ErrMin= 2.13D-03
 ErrMax= 2.13D-03  0.00D+00 EMaxC= 1.00D-01 BMatC= 5.20D-05 BMatP= 5.20D-05
 IDIUse=3 WtCom= 9.79D-01 WtEn= 2.13D-02
 Coeff-Com:  0.100D+01
 Coeff-En:   0.100D+01
 Coeff:      0.100D+01
 Gap=     0.717 Goal=   None    Shift=    0.000
 GapD=    0.717 DampG=2.000 DampE=1.000 DampFc=2.0000 IDamp=-1.
 RMSDP=1.79D-05 MaxDP=3.73D-04              OVMax= 2.81D-03

 Cycle   2  Pass 1  IDiag  1:
 E= -1.08540365215284     Delta-E=       -0.000031471651 Rises=F Damp=F
 DIIS: error= 2.32D-04 at cycle   2 NSaved=   2.
 NSaved= 2 IEnMin= 2 EnMin= -1.08540365215284     IErMin= 2 ErrMin= 2.32D-04
 ErrMax= 2.32D-04  0.00D+00 EMaxC= 1.00D-01 BMatC= 3.75D-07 BMatP= 5.20D-05
 IDIUse=3 WtCom= 9.98D-01 WtEn= 2.32D-03
 Coeff-Com: -0.755D-01 0.108D+01
 Coeff-En:   0.000D+00 0.100D+01
 Coeff:     -0.754D-01 0.108D+01
 Gap=     0.715 Goal=   None    Shift=    0.000
 RMSDP=2.85D-06 MaxDP=5.91D-05 DE=-3.15D-05 OVMax= 4.43D-04

 Cycle   3  Pass 1  IDiag  1:
 E= -1.08540414930630     Delta-E=       -0.000000497153 Rises=F Damp=F
 DIIS: error= 1.61D-05 at cycle   3 NSaved=   3.
 NSaved= 3 IEnMin= 3 EnMin= -1.08540414930630     IErMin= 3 ErrMin= 1.61D-05
 ErrMax= 1.61D-05  0.00D+00 EMaxC= 1.00D-01 BMatC= 3.92D-09 BMatP= 3.75D-07
 IDIUse=1 WtCom= 1.00D+00 WtEn= 0.00D+00
 Coeff-Com:  0.138D-01-0.201D+00 0.119D+01
 Coeff:      0.138D-01-0.201D+00 0.119D+01
 Gap=     0.715 Goal=   None    Shift=    0.000
 RMSDP=6.23D-07 MaxDP=1.15D-05 DE=-4.97D-07 OVMax= 6.47D-05

 Cycle   4  Pass 1  IDiag  1:
 E= -1.08540415705142     Delta-E=       -0.000000007745 Rises=F Damp=F
 DIIS: error= 2.04D-06 at cycle   4 NSaved=   4.
 NSaved= 4 IEnMin= 4 EnMin= -1.08540415705142     IErMin= 4 ErrMin= 2.04D-06
 ErrMax= 2.04D-06  0.00D+00 EMaxC= 1.00D-01 BMatC= 3.50D-11 BMatP= 3.92D-09
 IDIUse=1 WtCom= 1.00D+00 WtEn= 0.00D+00
 Coeff-Com: -0.199D-02 0.309D-01-0.225D+00 0.120D+01
 Coeff:     -0.199D-02 0.309D-01-0.225D+00 0.120D+01
 Gap=     0.715 Goal=   None    Shift=    0.000
 RMSDP=9.53D-08 MaxDP=2.86D-06 DE=-7.75D-09 OVMax= 6.82D-06

 Cycle   5  Pass 1  IDiag  1:
 E= -1.08540415712793     Delta-E=       -0.000000000077 Rises=F Damp=F
 DIIS: error= 8.66D-08 at cycle   5 NSaved=   5.
 NSaved= 5 IEnMin= 5 EnMin= -1.08540415712793     IErMin= 5 ErrMin= 8.66D-08
 ErrMax= 8.66D-08  0.00D+00 EMaxC= 1.00D-01 BMatC= 1.26D-13 BMatP= 3.50D-11
 IDIUse=1 WtCom= 1.00D+00 WtEn= 0.00D+00
 Coeff-Com:  0.242D-03-0.384D-02 0.293D-01-0.195D+00 0.117D+01
 Coeff:      0.242D-03-0.384D-02 0.293D-01-0.195D+00 0.117D+01
 Gap=     0.715 Goal=   None    Shift=    0.000
 RMSDP=7.64D-09 MaxDP=2.32D-07 DE=-7.65D-11 OVMax= 4.54D-07

 SCF Done:  E(RHF) =  -1.08540415713     A.U. after    5 cycles
            NFock=  5  Conv=0.76D-08     -V/T= 1.7731
 KE= 1.404044340617D+00 PE=-4.232489133627D+00 EE= 7.445930681085D-01
 Leave Link  502 at Tue Aug 13 16:18:25 2024, MaxMem=  1310720000 cpu:               2.9 elap:               0.4
 (Enter /opt/cluster/programs/g16-c.01/g16/l508.exe)
 QCSCF skips out because SCF is already converged.
 Leave Link  508 at Tue Aug 13 16:18:25 2024, MaxMem=  1310720000 cpu:               0.0 elap:               0.0
 (Enter /opt/cluster/programs/g16-c.01/g16/l801.exe)
 Windowed orbitals will be sorted by symmetry type.
 Range of M.O.s used for correlation:     1    92
 NBasis=    92 NAE=     1 NBE=     1 NFC=     0 NFV=     0
 NROrb=     92 NOA=     1 NOB=     1 NVA=    91 NVB=    91

 **** Warning!!: The largest alpha MO coefficient is  0.15876529D+03

 Leave Link  801 at Tue Aug 13 16:18:25 2024, MaxMem=  1310720000 cpu:               0.3 elap:               0.0
 (Enter /opt/cluster/programs/g16-c.01/g16/l804.exe)
 Closed-shell transformation, MDV=  1310720000 ITran=4 ISComp=2.
 Semi-Direct transformation.
 ModeAB=           4 MOrb=             1 LenV=    1310341315
 LASXX=        49960 LTotXX=       49960 LenRXX=      102232
 LTotAB=       52272 MaxLAS=      310408 LenRXY=           0
 NonZer=      152192 LenScr=      785920 LnRSAI=      310408
 LnScr1=      930816 LExtra=           0 Total=      2129376
 MaxDsk=          -1 SrtSym=           T ITran=            4
 DoSDTr:  NPSUse=  8
 JobTyp=0 Pass  1:  I=   1 to   1.
 (rs|ai) integrals will be sorted in core.
 Complete sort for first half transformation.
 First half transformation complete.
 Complete sort for second half transformation.
 Second half transformation complete.
 Spin components of T(2) and E(2):
     alpha-alpha T2 =       0.0000000000D+00 E2=      0.0000000000D+00
     alpha-beta  T2 =       0.8272743904D-02 E2=     -0.3289245392D-01
     beta-beta   T2 =       0.0000000000D+00 E2=      0.0000000000D+00
 ANorm=    0.1004127852D+01
 E2 =    -0.3289245392D-01 EUMP2 =    -0.11182966110490D+01
 Leave Link  804 at Tue Aug 13 16:18:26 2024, MaxMem=  1310720000 cpu:               1.7 elap:               0.2
 (Enter /opt/cluster/programs/g16-c.01/g16/l913.exe)
 CIDS:  MDV=  1310720000.
 IFCWin=0 IBDFC=1 NFBD=     0     0 NFCmp=     0     0 NFFFC=     0     0
 Using DD3R+UMP44R for 1st iteration.
 Using DD4RQ for 2nd and later iterations.
 Keep R2 and R3 ints in memory in symmetry-blocked form, NReq=13069217.
 FoFCou: FMM=F IPFlag=           0 FMFlag=           0 FMFlg1=           0
         NFxFlg=           0 DoJE=F BraDBF=F KetDBF=F FulRan=T
         wScrn=  0.000000 ICntrl=       600 IOpCl=  0 I1Cent=           0 NGrid=           0
         NMat0=    1 NMatS0=   4278 NMatT0=    0 NMatD0=    1 NMtDS0=    0 NMtDT0=    0
 Petite list used in FoFCou.
 CIDS: In Core Option IDoMem=           1.
 CCSD(T)
 =======
 Iterations=  50 Convergence= 0.100D-06
 Produce multiple copies of IABC intergrals
 Iteration Nr.   1
 **********************
 DD1Dir will call FoFMem   1 times, MxPair=         2
 NAB=     1 NAA=     0 NBB=     0.
 MP4(R+Q)=  0.27211085D-03
 Maximum subspace dimension=  5
 A-vector RMS=  8.6581329D-04 Max=  3.4787749D-03 conv= 1.00D-05.
 RLE energy=       -0.0377232035
 E3=       -0.44853952D-02        EUMP3=      -0.11227820063D+01
 E4(DQ)=   -0.10615661D-02        UMP4(DQ)=   -0.11238435724D+01
 E4(SDQ)=  -0.10922732D-02        UMP4(SDQ)=  -0.11238742795D+01
 VARIATIONAL ENERGIES WITH THE FIRST-ORDER WAVEFUNCTION:
 DE(Corr)= -0.37104588E-01 E(Corr)=     -1.1225087456    
 NORM(A)=   0.10060133D+01
 Iteration Nr.   2
 **********************
 DD1Dir will call FoFMem   1 times, MxPair=         2
 NAB=     1 NAA=     0 NBB=     0.
 A-vector RMS=  1.2196580D-04 Max=  9.0970105D-04 conv= 1.00D-05.
 RLE energy=       -0.0388038690
 DE(Corr)= -0.38510518E-01 E(CORR)=     -1.1239146754     Delta=-1.41D-03
 NORM(A)=   0.10065091D+01
 Iteration Nr.   3
 **********************
 DD1Dir will call FoFMem   1 times, MxPair=         2
 NAB=     1 NAA=     0 NBB=     0.
 A-vector RMS=  4.4995957D-05 Max=  1.2826346D-04 conv= 1.00D-05.
 RLE energy=       -0.0388142741
 DE(Corr)= -0.38800327E-01 E(CORR)=     -1.1242044843     Delta=-2.90D-04
 NORM(A)=   0.10065322D+01
 Iteration Nr.   4
 **********************
 DD1Dir will call FoFMem   1 times, MxPair=         2
 NAB=     1 NAA=     0 NBB=     0.
 A-vector RMS=  7.5643637D-06 Max=  3.2737319D-05 conv= 1.00D-05.
 RLE energy=       -0.0388166753
 DE(Corr)= -0.38815698E-01 E(CORR)=     -1.1242198551     Delta=-1.54D-05
 NORM(A)=   0.10065360D+01
 Iteration Nr.   5
 **********************
 DD1Dir will call FoFMem   1 times, MxPair=         2
 NAB=     1 NAA=     0 NBB=     0.
 A-vector RMS=  1.7775123D-06 Max=  5.1737564D-06 conv= 1.00D-05.
 RLE energy=       -0.0388166255
 DE(Corr)= -0.38816566E-01 E(CORR)=     -1.1242207227     Delta=-8.68D-07
 NORM(A)=   0.10065361D+01
 Iteration Nr.   6
 **********************
 DD1Dir will call FoFMem   1 times, MxPair=         2
 NAB=     1 NAA=     0 NBB=     0.
 A-vector RMS=  3.2737006D-07 Max=  9.1265628D-07 conv= 1.00D-05.
 RLE energy=       -0.0388165632
 DE(Corr)= -0.38816578E-01 E(CORR)=     -1.1242207354     Delta=-1.28D-08
 NORM(A)=   0.10065360D+01
 CI/CC converged in    6 iterations to DelEn=-1.28D-08 Conv= 1.00D-07 ErrA1= 3.27D-07 Conv= 1.00D-05
 Wavefunction amplitudes converged. E(Corr)=     -1.1242207354    
 Largest amplitude= 2.36D-02
 Time for triples=        0.00 seconds.
 T4(CCSD)=  0.00000000D+00
 T5(CCSD)=  0.00000000D+00
 CCSD(T)= -0.11242207354D+01
 Discarding MO integrals.
 Leave Link  913 at Tue Aug 13 16:18:26 2024, MaxMem=  1310720000 cpu:               3.1 elap:               0.4
 (Enter /opt/cluster/programs/g16-c.01/g16/l108.exe)
 Variable Step   Value    
 -------- ---- -----------
     1       4    1.020452
 Leave Link  108 at Tue Aug 13 16:18:26 2024, MaxMem=  1310720000 cpu:               0.1 elap:               0.0
 (Enter /opt/cluster/programs/g16-c.01/g16/l202.exe)
 ---------------------------------------------------------------------------------------------------
                            Z-MATRIX (ANGSTROMS AND DEGREES)
   CD    Cent   Atom    N1       Length/X        N2       Alpha/Y        N3        Beta/Z          J
 ---------------------------------------------------------------------------------------------------
      1      1  H 
      2      2  H        1   0.540000(     1)
 ---------------------------------------------------------------------------------------------------
                         Z-Matrix orientation:                         
 ---------------------------------------------------------------------
 Center     Atomic      Atomic             Coordinates (Angstroms)
 Number     Number       Type             X           Y           Z
 ---------------------------------------------------------------------
      1          1           0        0.000000    0.000000    0.000000
      2          1           0        0.000000    0.000000    0.540000
 ---------------------------------------------------------------------
 Stoichiometry    H2
 Framework group  D*H[C*(H.H)]
 Deg. of freedom     1
 Full point group                 D*H     NOp   8
 RotChk:  IX=0 Diff= 0.00D+00
 Largest Abelian subgroup         D2H     NOp   8
 Largest concise Abelian subgroup C2      NOp   2
                         Standard orientation:                         
 ---------------------------------------------------------------------
 Center     Atomic      Atomic             Coordinates (Angstroms)
 Number     Number       Type             X           Y           Z
 ---------------------------------------------------------------------
      1          1           0        0.000000    0.000000    0.270000
      2          1           0        0.000000    0.000000   -0.270000
 ---------------------------------------------------------------------
 Rotational constants (GHZ):           0.0000000        3439.3354216        3439.3354216
 Leave Link  202 at Tue Aug 13 16:18:26 2024, MaxMem=  1310720000 cpu:               0.0 elap:               0.0
[...]
 E4(SDQ)=  -0.55852357D-02        UMP4(SDQ)=  -0.10626691228D+01
 VARIATIONAL ENERGIES WITH THE FIRST-ORDER WAVEFUNCTION:
 DE(Corr)= -0.50979426E-01 E(Corr)=     -1.0558991964    
 NORM(A)=   0.10298277D+01
 Iteration Nr.   2
 **********************
 DD1Dir will call FoFMem   1 times, MxPair=         2
 NAB=     1 NAA=     0 NBB=     0.
 A-vector RMS=  1.7875832D-03 Max=  1.6913511D-02 conv= 1.00D-05.
 RLE energy=       -0.0627186672
 DE(Corr)= -0.58158621E-01 E(CORR)=     -1.0630783912     Delta=-7.18D-03
 NORM(A)=   0.10457086D+01
 Iteration Nr.   3
 **********************
 DD1Dir will call FoFMem   1 times, MxPair=         2
 NAB=     1 NAA=     0 NBB=     0.
 A-vector RMS=  5.2890278D-04 Max=  1.7558908D-03 conv= 1.00D-05.
 RLE energy=       -0.0627728054
 DE(Corr)= -0.62467779E-01 E(CORR)=     -1.0673875490     Delta=-4.31D-03
 NORM(A)=   0.10471240D+01
 Iteration Nr.   4
 **********************
 DD1Dir will call FoFMem   1 times, MxPair=         2
 NAB=     1 NAA=     0 NBB=     0.
 A-vector RMS=  8.5178050D-05 Max=  6.5991489D-04 conv= 1.00D-05.
 RLE energy=       -0.0630099121
 DE(Corr)= -0.62878560E-01 E(CORR)=     -1.0677983297     Delta=-4.11D-04
 NORM(A)=   0.10476992D+01
 Iteration Nr.   5
 **********************
 DD1Dir will call FoFMem   1 times, MxPair=         2
 NAB=     1 NAA=     0 NBB=     0.
 A-vector RMS=  1.3458469D-05 Max=  4.7497771D-05 conv= 1.00D-05.
 RLE energy=       -0.0629849713
 DE(Corr)= -0.62995435E-01 E(CORR)=     -1.0679152049     Delta=-1.17D-04
 NORM(A)=   0.10476618D+01
 Iteration Nr.   6
 **********************
 DD1Dir will call FoFMem   1 times, MxPair=         2
 NAB=     1 NAA=     0 NBB=     0.
 A-vector RMS=  2.2578933D-06 Max=  1.1019508D-05 conv= 1.00D-05.
 RLE energy=       -0.0629848373
 DE(Corr)= -0.62985042E-01 E(CORR)=     -1.0679048121     Delta= 1.04D-05
 NORM(A)=   0.10476627D+01
 Iteration Nr.   7
 **********************
 DD1Dir will call FoFMem   1 times, MxPair=         2
 NAB=     1 NAA=     0 NBB=     0.
 A-vector RMS=  5.7883778D-07 Max=  2.7566534D-06 conv= 1.00D-05.
 RLE energy=       -0.0629852446
 DE(Corr)= -0.62984947E-01 E(CORR)=     -1.0679047171     Delta= 9.49D-08
 NORM(A)=   0.10476638D+01
 CI/CC converged in    7 iterations to DelEn= 9.49D-08 Conv= 1.00D-07 ErrA1= 5.79D-07 Conv= 1.00D-05
 Wavefunction amplitudes converged. E(Corr)=     -1.0679047171    
 Dominant configurations:
 ***********************
 Spin Case        I    J    A    B          Value
   ABAB           1    1    2    2      -0.161669D+00
   ABAB           1    1    2    4       0.115641D+00
   ABAB           1    1    4    2       0.115641D+00
 Largest amplitude= 1.62D-01
 Time for triples=        0.00 seconds.
 T4(CCSD)=  0.00000000D+00
 T5(CCSD)=  0.00000000D+00
 CCSD(T)= -0.10679047171D+01
 Discarding MO integrals.
 Leave Link  913 at Tue Aug 13 16:21:22 2024, MaxMem=  1310720000 cpu:               3.2 elap:               0.4
 (Enter /opt/cluster/programs/g16-c.01/g16/l108.exe)
 Scan completed.
 
 Summary of the potential surface scan:
   N      dh2         SCF          MP2          MP3    
 ----  ---------  -----------  -----------  -----------
    1     0.5000     -1.06470     -1.09761     -1.10204
    2     0.5100     -1.07221     -1.10511     -1.10957
    3     0.5200     -1.07910     -1.11200     -1.11646
    4     0.5300     -1.08540     -1.11830     -1.12278
    5     0.5400     -1.09117     -1.12406     -1.12856
    6     0.5500     -1.09642     -1.12931     -1.13383
    7     0.5600     -1.10120     -1.13409     -1.13864
    8     0.5700     -1.10554     -1.13844     -1.14300
    9     0.5800     -1.10947     -1.14238     -1.14696
   10     0.5900     -1.11302     -1.14593     -1.15053
   11     0.6000     -1.11620     -1.14912     -1.15375
   12     0.6100     -1.11905     -1.15198     -1.15663
   13     0.6200     -1.12158     -1.15453     -1.15920
   14     0.6300     -1.12382     -1.15678     -1.16148
   15     0.6400     -1.12578     -1.15876     -1.16349
   16     0.6500     -1.12748     -1.16048     -1.16523
   17     0.6600     -1.12894     -1.16196     -1.16674
   18     0.6700     -1.13017     -1.16321     -1.16802
   19     0.6800     -1.13119     -1.16425     -1.16909
   20     0.6900     -1.13201     -1.16509     -1.16997
   21     0.7000     -1.13263     -1.16575     -1.17065
   22     0.7100     -1.13308     -1.16623     -1.17117
   23     0.7200     -1.13337     -1.16655     -1.17152
   24     0.7300     -1.13350     -1.16671     -1.17171
   25     0.7400     -1.13348     -1.16673     -1.17177
   26     0.7500     -1.13333     -1.16661     -1.17169
   27     0.7600     -1.13304     -1.16637     -1.17148
   28     0.7700     -1.13264     -1.16600     -1.17115
   29     0.7800     -1.13212     -1.16553     -1.17071
   30     0.7900     -1.13149     -1.16495     -1.17017
   31     0.8000     -1.13076     -1.16427     -1.16953
   32     0.8100     -1.12994     -1.16350     -1.16880
   33     0.8200     -1.12903     -1.16264     -1.16798
   34     0.8300     -1.12804     -1.16170     -1.16708
   35     0.8400     -1.12697     -1.16068     -1.16611
   36     0.8500     -1.12583     -1.15960     -1.16507
   37     0.8600     -1.12461     -1.15844     -1.16396
   38     0.8700     -1.12334     -1.15723     -1.16279
   39     0.8800     -1.12200     -1.15595     -1.16156
   40     0.8900     -1.12061     -1.15462     -1.16028
   41     0.9000     -1.11916     -1.15324     -1.15895
   42     0.9100     -1.11767     -1.15182     -1.15757
   43     0.9200     -1.11613     -1.15035     -1.15615
   44     0.9300     -1.11455     -1.14883     -1.15469
   45     0.9400     -1.11292     -1.14729     -1.15319
   46     0.9500     -1.11126     -1.14570     -1.15166
   47     0.9600     -1.10957     -1.14408     -1.15009
   48     0.9700     -1.10784     -1.14243     -1.14850
   49     0.9800     -1.10608     -1.14076     -1.14688
   50     0.9900     -1.10430     -1.13906     -1.14524
   51     1.0000     -1.10249     -1.13733     -1.14357
   52     1.0100     -1.10065     -1.13558     -1.14188
   53     1.0200     -1.09880     -1.13382     -1.14017
   54     1.0300     -1.09692     -1.13203     -1.13845
   55     1.0400     -1.09503     -1.13023     -1.13671
   56     1.0500     -1.09312     -1.12841     -1.13495
   57     1.0600     -1.09119     -1.12659     -1.13319
   58     1.0700     -1.08925     -1.12474     -1.13141
   59     1.0800     -1.08730     -1.12289     -1.12963
   60     1.0900     -1.08534     -1.12103     -1.12783
   61     1.1000     -1.08337     -1.11916     -1.12603
   62     1.1100     -1.08139     -1.11729     -1.12423
   63     1.1200     -1.07940     -1.11541     -1.12241
   64     1.1300     -1.07740     -1.11352     -1.12060
   65     1.1400     -1.07540     -1.11163     -1.11878
   66     1.1500     -1.07340     -1.10974     -1.11696
   67     1.1600     -1.07139     -1.10785     -1.11514
   68     1.1700     -1.06937     -1.10595     -1.11332
   69     1.1800     -1.06736     -1.10406     -1.11151
   70     1.1900     -1.06534     -1.10216     -1.10969
   71     1.2000     -1.06333     -1.10027     -1.10788
   72     1.2100     -1.06131     -1.09838     -1.10606
   73     1.2200     -1.05929     -1.09649     -1.10426
   74     1.2300     -1.05728     -1.09460     -1.10246
   75     1.2400     -1.05527     -1.09272     -1.10066
   76     1.2500     -1.05326     -1.09085     -1.09887
   77     1.2600     -1.05125     -1.08897     -1.09708
   78     1.2700     -1.04924     -1.08711     -1.09530
   79     1.2800     -1.04724     -1.08525     -1.09353
   80     1.2900     -1.04525     -1.08339     -1.09177
   81     1.3000     -1.04326     -1.08155     -1.09001
   82     1.3100     -1.04127     -1.07971     -1.08826
   83     1.3200     -1.03929     -1.07788     -1.08652
   84     1.3300     -1.03732     -1.07605     -1.08479
   85     1.3400     -1.03535     -1.07424     -1.08307
   86     1.3500     -1.03339     -1.07243     -1.08136
   87     1.3600     -1.03143     -1.07063     -1.07966
   88     1.3700     -1.02949     -1.06884     -1.07798
   89     1.3800     -1.02755     -1.06706     -1.07630
   90     1.3900     -1.02561     -1.06529     -1.07463
   91     1.4000     -1.02369     -1.06353     -1.07297
   92     1.4100     -1.02177     -1.06179     -1.07133
   93     1.4200     -1.01986     -1.06005     -1.06970
   94     1.4300     -1.01796     -1.05832     -1.06808
   95     1.4400     -1.01607     -1.05660     -1.06647
   96     1.4500     -1.01419     -1.05489     -1.06487
   97     1.4600     -1.01232     -1.05320     -1.06329
   98     1.4700     -1.01045     -1.05152     -1.06172
   99     1.4800     -1.00860     -1.04984     -1.06016
  100     1.4900     -1.00676     -1.04818     -1.05862
  101     1.5000     -1.00492     -1.04653     -1.05708
 ----  ---------  -----------  -----------  -----------
  
 Leave Link  108 at Tue Aug 13 16:21:22 2024, MaxMem=  1310720000 cpu:               0.1 elap:               0.0
 (Enter /opt/cluster/programs/g16-c.01/g16/l9999.exe)
 Unable to Open any file for archive entry.
 1\1\GINC-NODE65\Scan\RCCSD(T)-FC\Aug-CC-pVQZ\H2\TOEPFER\13-Aug-2024\1\
 \#P CCSD(T)/aug-cc-pVQZ SCF=(CONVER=8,maxcycle=200,XQC) scan\\HEME + H
 2 2D Scan\\0,1\H\H,1,dh2\\dh2=0.5,s,100,0.01\\Version=ES64L-G16RevC.01
 \State=1-SGG\HF=-1.0646974,-1.0722117,-1.0790995,-1.0854042,-1.0911656
 ,-1.0964206,-1.1012032,-1.1055447,-1.1094744,-1.1130191,-1.1162038,-1.
 1190517,-1.1215843,-1.1238217,-1.1257825,-1.127484,-1.1289425,-1.13017
 31,-1.1311898,-1.1320059,-1.1326336,-1.1330845,-1.1333694,-1.1334984,-
 1.1334809,-1.133326,-1.1330419,-1.1326365,-1.1321171,-1.1314908,-1.130
 764,-1.1299429,-1.1290333,-1.1280407,-1.1269701,-1.1258265,-1.1246143,
 -1.123338,-1.1220016,-1.120609,-1.1191637,-1.1176693,-1.116129,-1.1145
 457,-1.1129225,-1.1112621,-1.1095671,-1.1078399,-1.1060829,-1.1042983,
 -1.102488,-1.1006543,-1.0987988,-1.0969233,-1.0950296,-1.0931193,-1.09
 11938,-1.0892545,-1.0873029,-1.0853402,-1.0833676,-1.0813863,-1.079397
 4,-1.0774019,-1.0754009,-1.0733951,-1.0713856,-1.0693732,-1.0673586,-1
 .0653426,-1.063326,-1.0613095,-1.0592936,-1.057279,-1.0552663,-1.05325
 59,-1.0512486,-1.0492446,-1.0472446,-1.0452489,-1.043258,-1.0412723,-1
 .0392921,-1.0373178,-1.0353498,-1.0333883,-1.0314336,-1.0294861,-1.027
 546,-1.0256135,-1.0236889,-1.0217725,-1.0198643,-1.0179647,-1.0160738,
 -1.0141917,-1.0123187,-1.0104548,-1.0086003,-1.0067553,-1.0049198\MP2=
 -1.0976091,-1.105115,-1.1119964,-1.1182966,-1.1240556,-1.1293103,-1.13
 40945,-1.1384398,-1.1423751,-1.1459273,-1.1491216,-1.1519809,-1.154526
 9,-1.1567795,-1.1587574,-1.160478,-1.1619575,-1.1632108,-1.1642522,-1.
 1650947,-1.1657508,-1.166232,-1.166549,-1.1667119,-1.1667304,-1.166613
 2,-1.1663687,-1.1660048,-1.1655288,-1.1649478,-1.1642682,-1.1634962,-1
 .1626376,-1.1616978,-1.160682,-1.159595,-1.1584414,-1.1572255,-1.15595
 14,-1.1546229,-1.1532437,-1.1518172,-1.1503466,-1.148835,-1.1472853,-1
 .1457003,-1.1440825,-1.1424345,-1.1407584,-1.1390567,-1.1373312,-1.135
 5841,-1.1338171,-1.1320322,-1.1302308,-1.1284147,-1.1265854,-1.1247442
 ,-1.1228926,-1.1210318,-1.1191631,-1.1172876,-1.1154065,-1.1135207,-1.
 1116313,-1.1097392,-1.1078453,-1.1059505,-1.1040555,-1.1021612,-1.1002
 682,-1.0983773,-1.096489,-1.0946041,-1.0927231,-1.0908465,-1.0889749,-
 1.0871088,-1.0852487,-1.083395,-1.0815481,-1.0797085,-1.0778765,-1.076
 0525,-1.0742368,-1.0724298,-1.0706317,-1.0688429,-1.0670636,-1.065294,
 -1.0635345,-1.0617853,-1.0600465,-1.0583183,-1.056601,-1.0548948,-1.05
 31997,-1.051516,-1.0498438,-1.0481832,-1.0465344\MP3=-1.1020441,-1.109
 566,-1.1164642,-1.122782,-1.1285593,-1.133833,-1.1386371,-1.1430029,-1
 .1469595,-1.150534,-1.1537511,-1.1566342,-1.1592047,-1.1614827,-1.1634
 869,-1.1652345,-1.1667417,-1.1680237,-1.1690946,-1.1699675,-1.1706548,
 -1.171168,-1.1715178,-1.1717144,-1.1717674,-1.1716855,-1.1714772,-1.17
 11503,-1.1707122,-1.1701699,-1.1695298,-1.1687981,-1.1679807,-1.167083
 ,-1.16611,-1.1650668,-1.1639578,-1.1627874,-1.1615597,-1.1602785,-1.15
 89474,-1.1575699,-1.1561493,-1.1546886,-1.1531908,-1.1516585,-1.150094
 5,-1.1485011,-1.1468807,-1.1452356,-1.1435678,-1.1418792,-1.1401719,-1
 .1384475,-1.1367078,-1.1349543,-1.1331886,-1.1314122,-1.1296263,-1.127
 8324,-1.1260316,-1.1242251,-1.1224139,-1.1205993,-1.1187821,-1.1169634
 ,-1.1151439,-1.1133246,-1.1115063,-1.1096898,-1.1078758,-1.1060649,-1.
 104258,-1.1024554,-1.100658,-1.0988662,-1.0970806,-1.0953017,-1.093529
 9,-1.0917658,-1.0900098,-1.0882622,-1.0865235,-1.084794,-1.0830741,-1.
 0813642,-1.0796645,-1.0779753,-1.0762969,-1.0746296,-1.0729737,-1.0713
 293,-1.0696968,-1.0680762,-1.0664678,-1.0648719,-1.0632885,-1.0617179,
 -1.0601601,-1.0586154,-1.0570839\MP4D=-1.1033346,-1.1108705,-1.1177831
 ,-1.1241157,-1.1299082,-1.1351976,-1.1400177,-1.1444001,-1.1483737,-1.
 1519655,-1.1552005,-1.158102,-1.1606913,-1.1629886,-1.1650125,-1.16678
 05,-1.1683085,-1.1696119,-1.1707046,-1.1715999,-1.1723101,-1.1728467,-
 1.1732206,-1.1734418,-1.1735199,-1.1734637,-1.1732817,-1.1729817,-1.17
 2571,-1.1720567,-1.1714453,-1.170743,-1.1699555,-1.1690883,-1.1681466,
 -1.1671352,-1.1660587,-1.1649215,-1.1637277,-1.162481,-1.1611852,-1.15
 98437,-1.1584598,-1.1570366,-1.1555769,-1.1540836,-1.1525593,-1.151006
 4,-1.1494273,-1.1478242,-1.1461992,-1.1445543,-1.1428915,-1.1412125,-1
 .139519,-1.1378126,-1.1360948,-1.1343672,-1.1326311,-1.1308878,-1.1291
 385,-1.1273844,-1.1256267,-1.1238664,-1.1221045,-1.1203421,-1.1185799,
 -1.1168189,-1.1150599,-1.1133037,-1.111551,-1.1098025,-1.1080589,-1.10
 63209,-1.1045891,-1.102864,-1.1011462,-1.0994362,-1.0977344,-1.0960415
 ,-1.0943578,-1.0926838,-1.0910197,-1.0893662,-1.0877234,-1.0860918,-1.
 0844717,-1.0828633,-1.081267,-1.0796831,-1.0781118,-1.0765534,-1.07500
 81,-1.0734762,-1.0719578,-1.0704531,-1.0689624,-1.0674859,-1.0660236,-
 1.0645758,-1.0631425\MP4DQ=-1.1030706,-1.1106038,-1.1175137,-1.1238436
 ,-1.1296333,-1.1349198,-1.139737,-1.1441163,-1.1480868,-1.1516755,-1.1
 549073,-1.1578054,-1.1603914,-1.1626853,-1.1647057,-1.16647,-1.1679944
 ,-1.169294,-1.1703829,-1.1712743,-1.1719805,-1.1725131,-1.1728827,-1.1
 730997,-1.1731734,-1.1731128,-1.1729262,-1.1726216,-1.1722062,-1.17168
 71,-1.1710707,-1.1703633,-1.1695707,-1.1686982,-1.1677511,-1.1667342,-
 1.1656522,-1.1645092,-1.1633095,-1.1620569,-1.160755,-1.1594073,-1.158
 017,-1.1565873,-1.155121,-1.1536209,-1.1520897,-1.1505297,-1.1489434,-
 1.147333,-1.1457005,-1.144048,-1.1423773,-1.1406903,-1.1389886,-1.1372
 738,-1.1355476,-1.1338113,-1.1320663,-1.1303139,-1.1285553,-1.1267918,
 -1.1250245,-1.1232543,-1.1214824,-1.1197097,-1.117937,-1.1161653,-1.11
 43954,-1.112628,-1.1108639,-1.1091038,-1.1073484,-1.1055982,-1.103854,
 -1.1021163,-1.1003855,-1.0986623,-1.0969472,-1.0952405,-1.0935428,-1.0
 918544,-1.0901758,-1.0885073,-1.0868493,-1.0852022,-1.0835662,-1.08194
 16,-1.0803288,-1.078728,-1.0771395,-1.0755635,-1.0740003,-1.07245,-1.0
 709129,-1.0693892,-1.067879,-1.0663826,-1.0649,-1.0634315,-1.0619771\M
 P4SDQ=-1.1030975,-1.110632,-1.1175431,-1.1238743,-1.1296654,-1.1349532
 ,-1.1397719,-1.1441527,-1.1481248,-1.1517151,-1.1549486,-1.1578484,-1.
 1604362,-1.1627319,-1.1647543,-1.1665206,-1.168047,-1.1693487,-1.17043
 98,-1.1713335,-1.172042,-1.172577,-1.1729491,-1.1731687,-1.173245,-1.1
 731871,-1.1730034,-1.1727016,-1.1722892,-1.1717732,-1.17116,-1.1704559
 ,-1.1696666,-1.1687976,-1.1678541,-1.1668409,-1.1657626,-1.1646235,-1.
 1634278,-1.1621793,-1.1608816,-1.1595382,-1.1581524,-1.1567272,-1.1552
 656,-1.1537703,-1.152244,-1.1506891,-1.149108,-1.1475029,-1.1458759,-1
 .144229,-1.1425641,-1.140883,-1.1391873,-1.1374788,-1.1357589,-1.13402
 91,-1.1322908,-1.1305452,-1.1287937,-1.1270373,-1.1252773,-1.1235147,-
 1.1217504,-1.1199856,-1.1182209,-1.1164575,-1.114696,-1.1129372,-1.111
 1819,-1.1094309,-1.1076847,-1.105944,-1.1042094,-1.1024815,-1.1007609,
 -1.099048,-1.0973433,-1.0956474,-1.0939607,-1.0922835,-1.0906164,-1.08
 89596,-1.0873136,-1.0856786,-1.084055,-1.0824432,-1.0808434,-1.0792558
 ,-1.0776808,-1.0761186,-1.0745694,-1.0730335,-1.071511,-1.0700022,-1.0
 685072,-1.0670263,-1.0655595,-1.0641071,-1.0626691\CCSD=-1.1034203,-1.
 1109623,-1.1178814,-1.1242207,-1.1300204,-1.1353172,-1.1401452,-1.1445
 357,-1.1485179,-1.1521187,-1.1553631,-1.1582743,-1.1608739,-1.1631819,
 -1.165217,-1.1669966,-1.1685368,-1.1698528,-1.1709587,-1.1718677,-1.17
 25922,-1.1731436,-1.1735329,-1.1737701,-1.1738648,-1.1738259,-1.173661
 8,-1.1733804,-1.1729891,-1.1724948,-1.1719041,-1.1712232,-1.1704579,-1
 .1696137,-1.1686957,-1.167709,-1.1666579,-1.165547,-1.1643803,-1.16316
 17,-1.1618949,-1.1605833,-1.1592302,-1.1578388,-1.156412,-1.1549525,-1
 .153463,-1.151946,-1.1504039,-1.1488389,-1.1472531,-1.1456486,-1.14402
 73,-1.1423909,-1.1407412,-1.1390799,-1.1374085,-1.1357284,-1.1340411,-
 1.1323478,-1.1306499,-1.1289486,-1.127245,-1.1255401,-1.1238351,-1.122
 1308,-1.1204282,-1.1187283,-1.1170317,-1.1153394,-1.1136521,-1.1119705
 ,-1.1102953,-1.1086272,-1.1069667,-1.1053144,-1.103671,-1.1020369,-1.1
 004127,-1.0987987,-1.0971955,-1.0956036,-1.0940232,-1.0924548,-1.09089
 87,-1.0893553,-1.087825,-1.0863079,-1.0848044,-1.0833147,-1.0818392,-1
 .0803781,-1.0789315,-1.0774996,-1.0760828,-1.074681,-1.0732946,-1.0719
 237,-1.0705683,-1.0692287,-1.0679047\CCSD(T)=-1.1034203,-1.1109623,-1.
 1178814,-1.1242207,-1.1300204,-1.1353172,-1.1401452,-1.1445357,-1.1485
 179,-1.1521187,-1.1553631,-1.1582743,-1.1608739,-1.1631819,-1.165217,-
 1.1669966,-1.1685368,-1.1698528,-1.1709587,-1.1718677,-1.1725922,-1.17
 31436,-1.1735329,-1.1737701,-1.1738648,-1.1738259,-1.1736618,-1.173380
 4,-1.1729891,-1.1724948,-1.1719041,-1.1712232,-1.1704579,-1.1696137,-1
 .1686957,-1.167709,-1.1666579,-1.165547,-1.1643803,-1.1631617,-1.16189
 49,-1.1605833,-1.1592302,-1.1578388,-1.156412,-1.1549525,-1.153463,-1.
 151946,-1.1504039,-1.1488389,-1.1472531,-1.1456486,-1.1440273,-1.14239
 09,-1.1407412,-1.1390799,-1.1374085,-1.1357284,-1.1340411,-1.1323478,-
 1.1306499,-1.1289486,-1.127245,-1.1255401,-1.1238351,-1.1221308,-1.120
 4282,-1.1187283,-1.1170317,-1.1153394,-1.1136521,-1.1119705,-1.1102953
 ,-1.1086272,-1.1069667,-1.1053144,-1.103671,-1.1020369,-1.1004127,-1.0
 987987,-1.0971955,-1.0956036,-1.0940232,-1.0924548,-1.0908987,-1.08935
 53,-1.087825,-1.0863079,-1.0848044,-1.0833147,-1.0818392,-1.0803781,-1
 .0789315,-1.0774996,-1.0760828,-1.074681,-1.0732946,-1.0719237,-1.0705
 683,-1.0692287,-1.0679047\RMSD=3.953e-09,7.594e-09,7.620e-09,7.642e-09
 ,7.661e-09,7.675e-09,7.685e-09,7.689e-09,7.688e-09,7.681e-09,7.669e-09
 ,7.652e-09,7.629e-09,7.601e-09,7.568e-09,7.530e-09,7.488e-09,7.442e-09
 ,7.393e-09,7.341e-09,7.287e-09,7.230e-09,7.172e-09,7.113e-09,7.053e-09
 ,6.992e-09,6.930e-09,6.867e-09,6.805e-09,6.742e-09,6.680e-09,6.619e-09
 ,6.559e-09,6.501e-09,6.445e-09,6.393e-09,6.345e-09,6.301e-09,6.261e-09
 ,6.227e-09,6.198e-09,6.174e-09,6.155e-09,6.141e-09,6.132e-09,6.127e-09
 ,6.125e-09,6.126e-09,6.131e-09,6.137e-09,6.146e-09,6.157e-09,6.169e-09
 ,6.182e-09,6.196e-09,6.211e-09,6.226e-09,6.242e-09,6.258e-09,6.274e-09
 ,6.289e-09,6.305e-09,6.320e-09,6.335e-09,6.350e-09,6.363e-09,6.377e-09
 ,6.389e-09,6.401e-09,6.413e-09,6.424e-09,6.434e-09,6.443e-09,6.452e-09
 ,6.460e-09,6.468e-09,6.475e-09,6.481e-09,6.487e-09,6.493e-09,6.498e-09
 ,6.503e-09,6.507e-09,6.511e-09,6.515e-09,6.519e-09,6.522e-09,6.525e-09
 ,6.528e-09,6.531e-09,6.534e-09,6.536e-09,6.539e-09,6.541e-09,6.543e-09
 ,6.546e-09,6.548e-09,6.550e-09,6.552e-09,6.554e-09,6.556e-09\PG=D*H [C
 *(H1.H1)]\\@
 The archive entry for this job was punched.


 THOSE WHO TRY TO PASS CHEMISTRY OFF AS A NEW SCIENCE
 SHOW HOW LITTLE KNOWLEDGE THEY HAVE OF THE CHARACTER
 AND LITERATURE OF THE ANCIENTS.
   -- NICOLAS LEFEVRE
 "COURS DE CHYMIE" J.-N.LELOUP, PARIS, 1751
 Job cpu time:       0 days  0 hours 19 minutes 45.7 seconds.
 Elapsed time:       0 days  0 hours  2 minutes 32.2 seconds.
 File lengths (MBytes):  RWF=     25 Int=      0 D2E=      0 Chk=      3 Scr=      1
 Normal termination of Gaussian 16 at Tue Aug 13 16:21:23 2024.
