 Entering Gaussian System, Link 0=/opt/cluster/programs/g16-c.01/g16/g16
 Input=/data/toepfer/Project_Heme/H2_fit/H2_opt/h2.com
 Output=/scratch/toepfer/h2/h2.out
 Initial command:
 /opt/cluster/programs/g16-c.01/g16/l1.exe "/scratch/toepfer/h2/Gau-15029.inp" -scrdir="/scratch/toepfer/h2/"
 Entering Link 1 = /opt/cluster/programs/g16-c.01/g16/l1.exe PID=     15030.
  
 Copyright (c) 1988-2019, Gaussian, Inc.  All Rights Reserved.
  
 This is part of the Gaussian(R) 16 program.  It is based on
 the Gaussian(R) 09 system (copyright 2009, Gaussian, Inc.),
 the Gaussian(R) 03 system (copyright 2003, Gaussian, Inc.),
 the Gaussian(R) 98 system (copyright 1998, Gaussian, Inc.),
 the Gaussian(R) 94 system (copyright 1995, Gaussian, Inc.),
 the Gaussian 92(TM) system (copyright 1992, Gaussian, Inc.),
 the Gaussian 90(TM) system (copyright 1990, Gaussian, Inc.),
 the Gaussian 88(TM) system (copyright 1988, Gaussian, Inc.),
 the Gaussian 86(TM) system (copyright 1986, Carnegie Mellon
 University), and the Gaussian 82(TM) system (copyright 1983,
 Carnegie Mellon University). Gaussian is a federally registered
 trademark of Gaussian, Inc.
  
 This software contains proprietary and confidential information,
 including trade secrets, belonging to Gaussian, Inc.
  
 This software is provided under written license and may be
 used, copied, transmitted, or stored only in accord with that
 written license.
  
 The following legend is applicable only to US Government
 contracts under FAR:
  
                    RESTRICTED RIGHTS LEGEND
  
 Use, reproduction and disclosure by the US Government is
 subject to restrictions as set forth in subparagraphs (a)
 and (c) of the Commercial Computer Software - Restricted
 Rights clause in FAR 52.227-19.
  
 Gaussian, Inc.
 340 Quinnipiac St., Bldg. 40, Wallingford CT 06492
  
  
 ---------------------------------------------------------------
 Warning -- This program may not be used in any manner that
 competes with the business of Gaussian, Inc. or will provide
 assistance to any competitor of Gaussian, Inc.  The licensee
 of this program is prohibited from giving any competitor of
 Gaussian, Inc. access to this program.  By using this program,
 the user acknowledges that Gaussian, Inc. is engaged in the
 business of creating and licensing software in the field of
 computational chemistry and represents and warrants to the
 licensee that it is not a competitor of Gaussian, Inc. and that
 it will not use this program in any manner prohibited above.
 ---------------------------------------------------------------
  

 Cite this work as:
 Gaussian 16, Revision C.01,
 M. J. Frisch, G. W. Trucks, H. B. Schlegel, G. E. Scuseria, 
 M. A. Robb, J. R. Cheeseman, G. Scalmani, V. Barone, 
 G. A. Petersson, H. Nakatsuji, X. Li, M. Caricato, A. V. Marenich, 
 J. Bloino, B. G. Janesko, R. Gomperts, B. Mennucci, H. P. Hratchian, 
 J. V. Ortiz, A. F. Izmaylov, J. L. Sonnenberg, D. Williams-Young, 
 F. Ding, F. Lipparini, F. Egidi, J. Goings, B. Peng, A. Petrone, 
 T. Henderson, D. Ranasinghe, V. G. Zakrzewski, J. Gao, N. Rega, 
 G. Zheng, W. Liang, M. Hada, M. Ehara, K. Toyota, R. Fukuda, 
 J. Hasegawa, M. Ishida, T. Nakajima, Y. Honda, O. Kitao, H. Nakai, 
 T. Vreven, K. Throssell, J. A. Montgomery, Jr., J. E. Peralta, 
 F. Ogliaro, M. J. Bearpark, J. J. Heyd, E. N. Brothers, K. N. Kudin, 
 V. N. Staroverov, T. A. Keith, R. Kobayashi, J. Normand, 
 K. Raghavachari, A. P. Rendell, J. C. Burant, S. S. Iyengar, 
 J. Tomasi, M. Cossi, J. M. Millam, M. Klene, C. Adamo, R. Cammi, 
 J. W. Ochterski, R. L. Martin, K. Morokuma, O. Farkas, 
 J. B. Foresman, and D. J. Fox, Gaussian, Inc., Wallingford CT, 2019.
 
 ******************************************
 Gaussian 16:  ES64L-G16RevC.01  3-Jul-2019
                13-Aug-2024 
 ******************************************
 %MEM=10000MB
 %nproc=8
 Will use up to    8 processors via shared memory.
 %Chk=h2.chk
 -------------------------------------------------------
 #P CCSD/aug-cc-pVQZ SCF=(CONVER=8,maxcycle=200,XQC) opt
 -------------------------------------------------------
 1/18=20,19=15,38=1/1,3;
 2/9=110,12=2,17=6,18=5,40=1/2;
 3/5=16,6=2,7=10,11=9,25=1,30=1,71=1/1,2,3;
 4//1;
 5/5=2,6=8,7=200,8=3,13=1,38=5/2,8;
 8/6=4,9=120000,10=1/1,4;
 9/5=7,15=1/13;
 11/28=-8,29=200,42=3/11;
 10/5=6/2;
 6/7=2,8=2,9=2,10=2/1;
 7/12=7/1,2,3,16;
 1/18=20,19=15/3(2);
 2/9=110/2;
 99//99;
 2/9=110/2;
 3/5=16,6=2,7=10,11=9,25=1,30=1,71=1/1,2,3;
 4/5=5,16=3,69=1/1;
 5/5=2,6=8,7=200,8=3,13=1,38=5/2,8;
 8/6=4,9=120000,10=1/1,4;
 9/5=7,15=1/13;
 11/28=-8,29=200,42=3/11;
 10/5=6/2;
 7/12=7/1,2,3,16;
 1/18=20,19=15/3(-9);
 2/9=110/2;
 6/7=2,8=2,9=2,10=2/1;
 99/9=10/99;
 Leave Link    1 at Tue Aug 13 16:44:03 2024, MaxMem=  1310720000 cpu:               0.3 elap:               0.0
 (Enter /opt/cluster/programs/g16-c.01/g16/l101.exe)
 -----------------
 HEME + H2 2D Scan
 -----------------
 Symbolic Z-matrix:
 Charge =  0 Multiplicity = 1
 h
 h                    1    dh2
       Variables:
  dh2                   0.75                     
 
 ITRead=  0  0
 MicOpt= -1 -1
 NAtoms=      2 NQM=        2 NQMF=       0 NMMI=      0 NMMIF=      0
                NMic=       0 NMicF=      0.
                    Isotopes and Nuclear Properties:
 (Nuclear quadrupole moments (NQMom) in fm**2, nuclear magnetic moments (NMagM)
  in nuclear magnetons)

  Atom         1           2
 IAtWgt=           1           1
 AtmWgt=   1.0078250   1.0078250
 NucSpn=           1           1
 AtZEff=  -0.0000000  -0.0000000
 NQMom=    0.0000000   0.0000000
 NMagM=    2.7928460   2.7928460
 AtZNuc=   1.0000000   1.0000000
 Leave Link  101 at Tue Aug 13 16:44:04 2024, MaxMem=  1310720000 cpu:               3.9 elap:               0.5
 (Enter /opt/cluster/programs/g16-c.01/g16/l103.exe)

 GradGradGradGradGradGradGradGradGradGradGradGradGradGradGradGradGradGrad
 Berny optimization.
 Initialization pass.
                           ----------------------------
                           !    Initial Parameters    !
                           ! (Angstroms and Degrees)  !
 --------------------------                            --------------------------
 ! Name  Definition              Value          Derivative Info.                !
 --------------------------------------------------------------------------------
 ! R1    R(1,2)                  0.75           estimate D2E/DX2                !
 --------------------------------------------------------------------------------
 Trust Radius=3.00D-01 FncErr=1.00D-07 GrdErr=1.00D-07 EigMax=2.50D+02 EigMin=1.00D-04
 Number of steps in this run=     20 maximum allowed number of steps=    100.
 GradGradGradGradGradGradGradGradGradGradGradGradGradGradGradGradGradGrad

 Leave Link  103 at Tue Aug 13 16:44:04 2024, MaxMem=  1310720000 cpu:               0.1 elap:               0.0
 (Enter /opt/cluster/programs/g16-c.01/g16/l202.exe)
                          Input orientation:                          
 ---------------------------------------------------------------------
 Center     Atomic      Atomic             Coordinates (Angstroms)
 Number     Number       Type             X           Y           Z
 ---------------------------------------------------------------------
      1          1           0        0.000000    0.000000    0.000000
      2          1           0        0.000000    0.000000    0.750000
 ---------------------------------------------------------------------
 Stoichiometry    H2
 Framework group  D*H[C*(H.H)]
 Deg. of freedom     1
 Full point group                 D*H     NOp   8
 Largest Abelian subgroup         D2H     NOp   8
 Largest concise Abelian subgroup C2      NOp   2
                         Standard orientation:                         
 ---------------------------------------------------------------------
 Center     Atomic      Atomic             Coordinates (Angstroms)
 Number     Number       Type             X           Y           Z
 ---------------------------------------------------------------------
      1          1           0        0.000000    0.000000    0.375000
      2          1           0        0.000000    0.000000   -0.375000
 ---------------------------------------------------------------------
 Rotational constants (GHZ):           0.0000000        1782.9514826        1782.9514826
 Leave Link  202 at Tue Aug 13 16:44:04 2024, MaxMem=  1310720000 cpu:               0.0 elap:               0.0
 (Enter /opt/cluster/programs/g16-c.01/g16/l301.exe)
 Standard basis: Aug-CC-pVQZ (5D, 7F)
 Ernie: Thresh=  0.10000D-02 Tol=  0.10000D-05 Strict=F.
 There are    24 symmetry adapted cartesian basis functions of AG  symmetry.
 There are     5 symmetry adapted cartesian basis functions of B1G symmetry.
 There are    13 symmetry adapted cartesian basis functions of B2G symmetry.
 There are    13 symmetry adapted cartesian basis functions of B3G symmetry.
 There are     5 symmetry adapted cartesian basis functions of AU  symmetry.
 There are    24 symmetry adapted cartesian basis functions of B1U symmetry.
 There are    13 symmetry adapted cartesian basis functions of B2U symmetry.
 There are    13 symmetry adapted cartesian basis functions of B3U symmetry.
 There are    19 symmetry adapted basis functions of AG  symmetry.
 There are     5 symmetry adapted basis functions of B1G symmetry.
 There are    11 symmetry adapted basis functions of B2G symmetry.
 There are    11 symmetry adapted basis functions of B3G symmetry.
 There are     5 symmetry adapted basis functions of AU  symmetry.
 There are    19 symmetry adapted basis functions of B1U symmetry.
 There are    11 symmetry adapted basis functions of B2U symmetry.
 There are    11 symmetry adapted basis functions of B3U symmetry.
    92 basis functions,   114 primitive gaussians,   110 cartesian basis functions
     1 alpha electrons        1 beta electrons
       nuclear repulsion energy         0.7055696146 Hartrees.
 IExCor=    0 DFT=F Ex=HF Corr=None ExCW=0 ScaHFX=  1.000000
 ScaDFX=  1.000000  1.000000  1.000000  1.000000 ScalE2=  1.000000  1.000000
 IRadAn=      5 IRanWt=     -1 IRanGd=            0 ICorTp=0 IEmpDi=  4
 NAtoms=    2 NActive=    2 NUniq=    1 SFac= 4.00D+00 NAtFMM=   60 NAOKFM=F Big=F
 Integral buffers will be    131072 words long.
 Raffenetti 1 integral format.
 Two-electron integral symmetry is turned on.
 Leave Link  301 at Tue Aug 13 16:44:04 2024, MaxMem=  1310720000 cpu:               0.3 elap:               0.0
 (Enter /opt/cluster/programs/g16-c.01/g16/l302.exe)
 NPDir=0 NMtPBC=     1 NCelOv=     1 NCel=       1 NClECP=     1 NCelD=      1
         NCelK=      1 NCelE2=     1 NClLst=     1 CellRange=     0.0.
 One-electron integrals computed using PRISM.
 One-electron integral symmetry used in STVInt
 NBasis=    92 RedAO= T EigKep=  3.59D-05  NBF=    19     5    11    11     5    19    11    11
 NBsUse=    92 1.00D-06 EigRej= -1.00D+00 NBFU=    19     5    11    11     5    19    11    11
 Leave Link  302 at Tue Aug 13 16:44:04 2024, MaxMem=  1310720000 cpu:               1.0 elap:               0.1
 (Enter /opt/cluster/programs/g16-c.01/g16/l303.exe)
 DipDrv:  MaxL=1.
 Leave Link  303 at Tue Aug 13 16:44:04 2024, MaxMem=  1310720000 cpu:               0.3 elap:               0.0
 (Enter /opt/cluster/programs/g16-c.01/g16/l401.exe)
 ExpMin= 2.36D-02 ExpMax= 8.26D+01 ExpMxC= 8.26D+01 IAcc=3 IRadAn=         5 AccDes= 0.00D+00
 Harris functional with IExCor=  205 and IRadAn=       5 diagonalized for initial guess.
 HarFok:  IExCor=  205 AccDes= 0.00D+00 IRadAn=         5 IDoV= 1 UseB2=F ITyADJ=14
 ICtDFT=  3500011 ScaDFX=  1.000000  1.000000  1.000000  1.000000
 FoFCou: FMM=F IPFlag=           0 FMFlag=      100000 FMFlg1=           0
         NFxFlg=           0 DoJE=T BraDBF=F KetDBF=T FulRan=T
         wScrn=  0.000000 ICntrl=       500 IOpCl=  0 I1Cent=   200000004 NGrid=           0
         NMat0=    1 NMatS0=      1 NMatT0=    0 NMatD0=    1 NMtDS0=    0 NMtDT0=    0
 Petite list used in FoFCou.
 Harris En= -1.18713275737775    
 JPrj=0 DoOrth=F DoCkMO=F.
 Initial guess orbital symmetries:
       Occupied  (SGG)
       Virtual   (SGU) (SGG) (PIU) (PIU) (SGU) (SGG) (PIG) (PIG)
                 (SGG) (SGU) (DLTG) (DLTG) (PIU) (PIU) (SGU) (PIG)
                 (PIG) (SGG) (DLTU) (DLTU) (PIU) (PIU) (SGU) (SGG)
                 (PIG) (PIG) (PHIU) (PHIU) (SGU) (SGG) (SGU) (DLTU)
                 (DLTU) (PIU) (PIU) (PIG) (PIG) (DLTG) (DLTG) (SGG)
                 (PHIG) (PHIG) (PIU) (PIU) (DLTG) (DLTG) (SGU)
                 (SGG) (PIG) (PIG) (SGU) (PIU) (PIU) (DLTU) (DLTU)
                 (SGU) (SGG) (PIG) (PIG) (SGG) (PHIU) (PHIU) (DLTG)
                 (DLTG) (PIU) (PIU) (PHIG) (PHIG) (SGG) (PIG) (PIG)
                 (DLTU) (DLTU) (SGU) (DLTG) (DLTG) (PIU) (PIU)
                 (SGU) (SGG) (PIU) (PIU) (PIG) (PIG) (DLTU) (DLTU)
                 (SGU) (PIG) (PIG) (SGG) (SGU)
 The electronic state of the initial guess is 1-SGG.
 Leave Link  401 at Tue Aug 13 16:44:04 2024, MaxMem=  1310720000 cpu:               1.3 elap:               0.2
 (Enter /opt/cluster/programs/g16-c.01/g16/l502.exe)
 Keep R1 ints in memory in symmetry-blocked form, NReq=13066297.
 FoFCou: FMM=F IPFlag=           0 FMFlag=           0 FMFlg1=           0
         NFxFlg=           0 DoJE=F BraDBF=F KetDBF=F FulRan=T
         wScrn=  0.000000 ICntrl=       600 IOpCl=  0 I1Cent=           0 NGrid=           0
         NMat0=    1 NMatS0=   4278 NMatT0=    0 NMatD0=    1 NMtDS0=    0 NMtDT0=    0
 Petite list used in FoFCou.
 Closed shell SCF:
 Using DIIS extrapolation, IDIIS=  1040.
 NGot=  1310720000 LenX=  1309507963 LenY=  1309495422
 Requested convergence on RMS density matrix=1.00D-08 within 128 cycles.
 Requested convergence on MAX density matrix=1.00D-06.
 Requested convergence on             energy=1.00D-06.
 No special actions if energy rises.

 Cycle   1  Pass 1  IDiag  1:
 E= -1.13048961526126    
 DIIS: error= 1.84D-02 at cycle   1 NSaved=   1.
 NSaved= 1 IEnMin= 1 EnMin= -1.13048961526126     IErMin= 1 ErrMin= 1.84D-02
 ErrMax= 1.84D-02  0.00D+00 EMaxC= 1.00D-01 BMatC= 2.53D-03 BMatP= 2.53D-03
 IDIUse=3 WtCom= 8.16D-01 WtEn= 1.84D-01
 Coeff-Com:  0.100D+01
 Coeff-En:   0.100D+01
 Coeff:      0.100D+01
 Gap=     0.637 Goal=   None    Shift=    0.000
 GapD=    0.637 DampG=2.000 DampE=0.500 DampFc=1.0000 IDamp=-1.
 RMSDP=2.05D-04 MaxDP=5.25D-03              OVMax= 2.96D-02

 Cycle   2  Pass 1  IDiag  1:
 E= -1.13325920434247     Delta-E=       -0.002769589081 Rises=F Damp=F
 DIIS: error= 2.45D-03 at cycle   2 NSaved=   2.
 NSaved= 2 IEnMin= 2 EnMin= -1.13325920434247     IErMin= 2 ErrMin= 2.45D-03
 ErrMax= 2.45D-03  0.00D+00 EMaxC= 1.00D-01 BMatC= 3.69D-05 BMatP= 2.53D-03
 IDIUse=3 WtCom= 9.75D-01 WtEn= 2.45D-02
 Coeff-Com: -0.115D+00 0.112D+01
 Coeff-En:   0.000D+00 0.100D+01
 Coeff:     -0.112D+00 0.111D+01
 Gap=     0.638 Goal=   None    Shift=    0.000
 RMSDP=4.24D-05 MaxDP=9.38D-04 DE=-2.77D-03 OVMax= 5.55D-03

 Cycle   3  Pass 1  IDiag  1:
 E= -1.13332512588562     Delta-E=       -0.000065921543 Rises=F Damp=F
 DIIS: error= 1.53D-04 at cycle   3 NSaved=   3.
 NSaved= 3 IEnMin= 3 EnMin= -1.13332512588562     IErMin= 3 ErrMin= 1.53D-04
 ErrMax= 1.53D-04  0.00D+00 EMaxC= 1.00D-01 BMatC= 3.77D-07 BMatP= 3.69D-05
 IDIUse=3 WtCom= 9.98D-01 WtEn= 1.53D-03
 Coeff-Com:  0.230D-01-0.235D+00 0.121D+01
 Coeff-En:   0.000D+00 0.000D+00 0.100D+01
 Coeff:      0.230D-01-0.234D+00 0.121D+01
 Gap=     0.639 Goal=   None    Shift=    0.000
 RMSDP=8.17D-06 MaxDP=2.30D-04 DE=-6.59D-05 OVMax= 7.26D-04

 Cycle   4  Pass 1  IDiag  1:
 E= -1.13332598366295     Delta-E=       -0.000000857777 Rises=F Damp=F
 DIIS: error= 1.43D-05 at cycle   4 NSaved=   4.
 NSaved= 4 IEnMin= 4 EnMin= -1.13332598366295     IErMin= 4 ErrMin= 1.43D-05
 ErrMax= 1.43D-05  0.00D+00 EMaxC= 1.00D-01 BMatC= 2.97D-09 BMatP= 3.77D-07
 IDIUse=1 WtCom= 1.00D+00 WtEn= 0.00D+00
 Coeff-Com: -0.394D-02 0.419D-01-0.262D+00 0.122D+01
 Coeff:     -0.394D-02 0.419D-01-0.262D+00 0.122D+01
 Gap=     0.639 Goal=   None    Shift=    0.000
 RMSDP=1.20D-06 MaxDP=4.22D-05 DE=-8.58D-07 OVMax= 7.47D-05

 Cycle   5  Pass 1  IDiag  1:
 E= -1.13332599142998     Delta-E=       -0.000000007767 Rises=F Damp=F
 DIIS: error= 7.17D-07 at cycle   5 NSaved=   5.
 NSaved= 5 IEnMin= 5 EnMin= -1.13332599142998     IErMin= 5 ErrMin= 7.17D-07
 ErrMax= 7.17D-07  0.00D+00 EMaxC= 1.00D-01 BMatC= 6.94D-12 BMatP= 2.97D-09
 IDIUse=1 WtCom= 1.00D+00 WtEn= 0.00D+00
 Coeff-Com:  0.480D-03-0.510D-02 0.329D-01-0.181D+00 0.115D+01
 Coeff:      0.480D-03-0.510D-02 0.329D-01-0.181D+00 0.115D+01
 Gap=     0.639 Goal=   None    Shift=    0.000
 RMSDP=7.47D-08 MaxDP=1.43D-06 DE=-7.77D-09 OVMax= 3.92D-06

 Cycle   6  Pass 1  IDiag  1:
 E= -1.13332599144983     Delta-E=       -0.000000000020 Rises=F Damp=F
 DIIS: error= 3.92D-08 at cycle   6 NSaved=   6.
 NSaved= 6 IEnMin= 6 EnMin= -1.13332599144983     IErMin= 6 ErrMin= 3.92D-08
 ErrMax= 3.92D-08  0.00D+00 EMaxC= 1.00D-01 BMatC= 3.49D-14 BMatP= 6.94D-12
 IDIUse=1 WtCom= 1.00D+00 WtEn= 0.00D+00
 Coeff-Com: -0.502D-04 0.527D-03-0.346D-02 0.199D-01-0.172D+00 0.116D+01
 Coeff:     -0.502D-04 0.527D-03-0.346D-02 0.199D-01-0.172D+00 0.116D+01
 Gap=     0.639 Goal=   None    Shift=    0.000
 RMSDP=5.98D-09 MaxDP=1.07D-07 DE=-1.98D-11 OVMax= 2.83D-07

 SCF Done:  E(RHF) =  -1.13332599145     A.U. after    6 cycles
            NFock=  6  Conv=0.60D-08     -V/T= 2.0153
 KE= 1.116256308279D+00 PE=-3.610431713286D+00 EE= 6.552797989973D-01
 Leave Link  502 at Tue Aug 13 16:44:05 2024, MaxMem=  1310720000 cpu:               2.9 elap:               0.4
 (Enter /opt/cluster/programs/g16-c.01/g16/l508.exe)
 QCSCF skips out because SCF is already converged.
 Leave Link  508 at Tue Aug 13 16:44:05 2024, MaxMem=  1310720000 cpu:               0.0 elap:               0.0
 (Enter /opt/cluster/programs/g16-c.01/g16/l801.exe)
 Windowed orbitals will be sorted by symmetry type.
 Range of M.O.s used for correlation:     1    92
 NBasis=    92 NAE=     1 NBE=     1 NFC=     0 NFV=     0
 NROrb=     92 NOA=     1 NOB=     1 NVA=    91 NVB=    91

 **** Warning!!: The largest alpha MO coefficient is  0.73844334D+02

 Leave Link  801 at Tue Aug 13 16:44:05 2024, MaxMem=  1310720000 cpu:               0.3 elap:               0.0
 (Enter /opt/cluster/programs/g16-c.01/g16/l804.exe)
 Closed-shell transformation, MDV=  1310720000 ITran=4 ISComp=2.
 Unit  1 TFree=         20783 TCopy=        348041.
 Semi-Direct transformation.
 ModeAB=           4 MOrb=             1 LenV=    1310341315
 LASXX=        49960 LTotXX=       49960 LenRXX=      102232
 LTotAB=       52272 MaxLAS=      310408 LenRXY=           0
 NonZer=      152192 LenScr=      785920 LnRSAI=      310408
 LnScr1=      930816 LExtra=           0 Total=      2129376
 MaxDsk=          -1 SrtSym=           T ITran=            4
 DoSDTr:  NPSUse=  8
 JobTyp=0 Pass  1:  I=   1 to   1.
 (rs|ai) integrals will be sorted in core.
 Complete sort for first half transformation.
 First half transformation complete.
 Complete sort for second half transformation.
 Second half transformation complete.
 Spin components of T(2) and E(2):
     alpha-alpha T2 =       0.0000000000D+00 E2=      0.0000000000D+00
     alpha-beta  T2 =       0.1054201156D-01 E2=     -0.3328716405D-01
     beta-beta   T2 =       0.0000000000D+00 E2=      0.0000000000D+00
 ANorm=    0.1005257187D+01
 E2 =    -0.3328716405D-01 EUMP2 =    -0.11666131555028D+01
 Leave Link  804 at Tue Aug 13 16:44:05 2024, MaxMem=  1310720000 cpu:               1.7 elap:               0.2
 (Enter /opt/cluster/programs/g16-c.01/g16/l913.exe)
 CIDS:  MDV=  1310720000.
 IFCWin=0 IBDFC=1 NFBD=     0     0 NFCmp=     0     0 NFFFC=     0     0
 Using DD3R+UMP44R for 1st iteration.
 Using DD4RQ for 2nd and later iterations.
 Keep R2 and R3 ints in memory in symmetry-blocked form, NReq=13069308.
 FoFCou: FMM=F IPFlag=           0 FMFlag=           0 FMFlg1=           0
         NFxFlg=           0 DoJE=F BraDBF=F KetDBF=F FulRan=T
         wScrn=  0.000000 ICntrl=       600 IOpCl=  0 I1Cent=           0 NGrid=           0
         NMat0=    1 NMatS0=   4278 NMatT0=    0 NMatD0=    1 NMtDS0=    0 NMtDT0=    0
 Petite list used in FoFCou.
 CIDS: In Core Option IDoMem=           1.
 Coupled Cluster theory with single and double substitutions
 ===========================================================
 Iterations=  50 Convergence= 0.100D-07
 Produce multiple copies of IABC intergrals
 Iteration Nr.   1
 **********************
 DD1Dir will call FoFMem   1 times, MxPair=         2
 NAB=     1 NAA=     0 NBB=     0.
 MP4(R+Q)=  0.35091367D-03
 Maximum subspace dimension=  5
 A-vector RMS=  1.3736368D-03 Max=  6.7235342D-03 conv= 1.00D-06.
 RLE energy=       -0.0387858204
 E3=       -0.50723414D-02        EUMP3=      -0.11716854969D+01
 E4(DQ)=   -0.14272945D-02        UMP4(DQ)=   -0.11731127914D+01
 E4(SDQ)=  -0.15016381D-02        UMP4(SDQ)=  -0.11731871351D+01
 VARIATIONAL ENERGIES WITH THE FIRST-ORDER WAVEFUNCTION:
 DE(Corr)= -0.38006277E-01 E(Corr)=     -1.1713322688    
 NORM(A)=   0.10081312D+01
 Iteration Nr.   2
 **********************
 DD1Dir will call FoFMem   1 times, MxPair=         2
 NAB=     1 NAA=     0 NBB=     0.
 A-vector RMS=  3.1140848D-04 Max=  2.1958867D-03 conv= 1.00D-06.
 RLE energy=       -0.0404595055
 DE(Corr)= -0.39926598E-01 E(CORR)=     -1.1732525899     Delta=-1.92D-03
 NORM(A)=   0.10091797D+01
 Iteration Nr.   3
 **********************
 DD1Dir will call FoFMem   1 times, MxPair=         2
 NAB=     1 NAA=     0 NBB=     0.
 A-vector RMS=  8.9493486D-05 Max=  3.3726471D-04 conv= 1.00D-06.
 RLE energy=       -0.0404921593
 DE(Corr)= -0.40451088E-01 E(CORR)=     -1.1737770795     Delta=-5.24D-04
 NORM(A)=   0.10092636D+01
 Iteration Nr.   4
 **********************
 DD1Dir will call FoFMem   1 times, MxPair=         2
 NAB=     1 NAA=     0 NBB=     0.
 A-vector RMS=  1.7406031D-05 Max=  7.0824224D-05 conv= 1.00D-06.
 RLE energy=       -0.0405007118
 DE(Corr)= -0.40496656E-01 E(CORR)=     -1.1738226476     Delta=-4.56D-05
 NORM(A)=   0.10092756D+01
 Iteration Nr.   5
 **********************
 DD1Dir will call FoFMem   1 times, MxPair=         2
 NAB=     1 NAA=     0 NBB=     0.
 A-vector RMS=  3.4304272D-06 Max=  8.9519174D-06 conv= 1.00D-06.
 RLE energy=       -0.0405000415
 DE(Corr)= -0.40500074E-01 E(CORR)=     -1.1738260650     Delta=-3.42D-06
 NORM(A)=   0.10092753D+01
 Iteration Nr.   6
 **********************
 DD1Dir will call FoFMem   1 times, MxPair=         2
 NAB=     1 NAA=     0 NBB=     0.
 A-vector RMS=  8.8475946D-07 Max=  2.8373820D-06 conv= 1.00D-06.
 RLE energy=       -0.0404999387
 DE(Corr)= -0.40499965E-01 E(CORR)=     -1.1738259568     Delta= 1.08D-07
 NORM(A)=   0.10092751D+01
 Iteration Nr.   7
 **********************
 DD1Dir will call FoFMem   1 times, MxPair=         2
 NAB=     1 NAA=     0 NBB=     0.
 A-vector RMS=  1.8292136D-07 Max=  5.9582290D-07 conv= 1.00D-06.
 RLE energy=       -0.0404999468
 DE(Corr)= -0.40499935E-01 E(CORR)=     -1.1738259265     Delta= 3.03D-08
 NORM(A)=   0.10092751D+01
 Iteration Nr.   8
 **********************
 DD1Dir will call FoFMem   1 times, MxPair=         2
 NAB=     1 NAA=     0 NBB=     0.
 A-vector RMS=  3.1396142D-08 Max=  1.0946832D-07 conv= 1.00D-06.
 RLE energy=       -0.0404999382
 DE(Corr)= -0.40499939E-01 E(CORR)=     -1.1738259309     Delta=-4.41D-09
 NORM(A)=   0.10092751D+01
 CI/CC converged in    8 iterations to DelEn=-4.41D-09 Conv= 1.00D-08 ErrA1= 3.14D-08 Conv= 1.00D-06
 Wavefunction amplitudes converged. E(Corr)=     -1.1738259309    
 Largest amplitude= 3.46D-02

 Z-amplitude iterations

 Iteration Nr.   1
 **********************
 DD1Dir will call FoFMem   1 times, MxPair=         2
 NAB=     1 NAA=     0 NBB=     0.
 A-vector RMS=  7.4327863D-05 Max=  4.3262087D-04 conv= 1.00D-06.
 RLE energy=       -0.0404957742
 DE(Z)= -0.39879282E-01 E(Z)=     -1.1732052737     Delta= 6.21D-04
 NORM(A)=   0.10092732D+01
 Iteration Nr.   2
 **********************
 DD1Dir will call FoFMem   1 times, MxPair=         2
 NAB=     1 NAA=     0 NBB=     0.
 A-vector RMS=  7.3970996D-05 Max=  4.3017427D-04 conv= 1.00D-06.
 RLE energy=       -0.0404909138
 DE(Z)= -0.39878588E-01 E(Z)=     -1.1732045794     Delta= 6.94D-07
 NORM(A)=   0.10092709D+01
 Iteration Nr.   3
 **********************
 DD1Dir will call FoFMem   1 times, MxPair=         2
 NAB=     1 NAA=     0 NBB=     0.
 A-vector RMS=  7.3449102D-05 Max=  4.2736945D-04 conv= 1.00D-06.
 RLE energy=       -0.0404632801
 DE(Z)= -0.39877774E-01 E(Z)=     -1.1732037652     Delta= 8.14D-07
 NORM(A)=   0.10092582D+01
 Iteration Nr.   4
 **********************
 DD1Dir will call FoFMem   1 times, MxPair=         2
 NAB=     1 NAA=     0 NBB=     0.
 A-vector RMS=  7.0683566D-05 Max=  4.1132358D-04 conv= 1.00D-06.
 RLE energy=       -0.0402987190
 DE(Z)= -0.39873159E-01 E(Z)=     -1.1731991503     Delta= 4.61D-06
 NORM(A)=   0.10091824D+01
 Iteration Nr.   5
 **********************
 DD1Dir will call FoFMem   1 times, MxPair=         2
 NAB=     1 NAA=     0 NBB=     0.
 A-vector RMS=  5.4268683D-05 Max=  3.1579420D-04 conv= 1.00D-06.
 RLE energy=       -0.0397548438
 DE(Z)= -0.39845676E-01 E(Z)=     -1.1731716674     Delta= 2.75D-05
 NORM(A)=   0.10089342D+01
 Iteration Nr.   6
 **********************
 DD1Dir will call FoFMem   1 times, MxPair=         2
 NAB=     1 NAA=     0 NBB=     0.
 A-vector RMS=  9.6138265D-09 Max=  3.6889057D-08 conv= 1.00D-06.
 RLE energy=       -0.0397548404
 DE(Z)= -0.39754842E-01 E(Z)=     -1.1730808334     Delta= 9.08D-05
 NORM(A)=   0.10089342D+01
 Iteration Nr.   7
 **********************
 DD1Dir will call FoFMem   1 times, MxPair=         2
 NAB=     1 NAA=     0 NBB=     0.
 A-vector RMS=  1.5946498D-09 Max=  6.4844194D-09 conv= 1.00D-06.
 RLE energy=       -0.0397548402
 DE(Z)= -0.39754840E-01 E(Z)=     -1.1730808318     Delta= 1.59D-09
 NORM(A)=   0.10089342D+01
 CI/CC converged in    7 iterations to DelEn= 1.59D-09 Conv= 1.00D-08 ErrA1= 1.59D-09 Conv= 1.00D-06
 Z-amplitudes converged.
 Discarding MO integrals.
 Leave Link  913 at Tue Aug 13 16:44:06 2024, MaxMem=  1310720000 cpu:               4.3 elap:               0.6
 (Enter /opt/cluster/programs/g16-c.01/g16/l1111.exe)
 Unit  1 TFree=        104630 TCopy=          3820.
 Selected functions:
 Compute CCSD 2PDM.
 Form Post-SCF non-separable gradient here.
 IO1PDM=    0 IOW=    0 IO2PDM=    0.
 MDV=    1310720000.
 Leave Link 1111 at Tue Aug 13 16:45:18 2024, MaxMem=  1310720000 cpu:             565.1 elap:              71.6
 (Enter /opt/cluster/programs/g16-c.01/g16/l1002.exe)
 Minotr:  Closed shell wavefunction.
          Computing CCSD/QCISD derivatives.
          Using Z-Vector for PSCF gradient.
          Skipping F1 and S1 gradient terms here.
          IDoAtm=11
          Direct CPHF calculation.
          Differentiating once with respect to electric field.
                with respect to dipole field.
          Differentiating once with respect to nuclear coordinates.
          Using symmetry in CPHF.
          Requested convergence is 1.0D-10 RMS, and 1.0D-09 maximum.
          NewPWx=F KeepS1=T KeepF1=T KeepIn=T MapXYZ=F SortEE=F KeepMc=T.
 Keep R1 ints in memory in symmetry-blocked form, NReq=13066959.
 FoFCou: FMM=F IPFlag=           0 FMFlag=           0 FMFlg1=           0
         NFxFlg=           0 DoJE=F BraDBF=F KetDBF=F FulRan=T
         wScrn=  0.000000 ICntrl=       600 IOpCl=  0 I1Cent=           0 NGrid=           0
         NMat0=    1 NMatS0=   4278 NMatT0=    0 NMatD0=    1 NMtDS0=    0 NMtDT0=    0
 Petite list used in FoFCou.
          MDV=    1310720000 using IRadAn=       5.
          Solving linear equations separately, MaxMat=       0.
          There are     1 degrees of freedom in the 1st order CPHF.  IDoFFX=0 NUNeed=     1.
 LinEq1:  Iter=  0 NonCon=     1 RMS=2.57D-03 Max=1.62D-02 NDo=     1
 AX will form     1 AO Fock derivatives at one time.
 LinEq1:  Iter=  1 NonCon=     1 RMS=1.37D-04 Max=6.98D-04 NDo=     1
 LinEq1:  Iter=  2 NonCon=     1 RMS=6.90D-06 Max=3.71D-05 NDo=     1
 LinEq1:  Iter=  3 NonCon=     1 RMS=4.25D-07 Max=2.29D-06 NDo=     1
 LinEq1:  Iter=  4 NonCon=     1 RMS=1.80D-08 Max=1.14D-07 NDo=     1
 LinEq1:  Iter=  5 NonCon=     1 RMS=1.15D-09 Max=7.26D-09 NDo=     1
 LinEq1:  Iter=  6 NonCon=     0 RMS=4.16D-11 Max=1.87D-10 NDo=     1
 Linear equations converged to 1.000D-10 1.000D-09 after     6 iterations.
 End of Minotr F.D. properties file   721 does not exist.
 End of Minotr F.D. properties file   722 does not exist.
 End of Minotr F.D. properties file   788 does not exist.
 Leave Link 1002 at Tue Aug 13 16:45:19 2024, MaxMem=  1310720000 cpu:               4.8 elap:               0.6
 (Enter /opt/cluster/programs/g16-c.01/g16/l601.exe)
 Copying SCF densities to generalized density rwf, IOpCl= 0 IROHF=0.

 **********************************************************************

            Population analysis using the SCF Density.

 **********************************************************************

 Orbital symmetries:
       Occupied  (SGG)
       Virtual   (SGU) (SGG) (SGU) (PIU) (PIU) (SGG) (PIG) (PIG)
                 (SGG) (SGU) (DLTG) (DLTG) (SGU) (PIG) (PIG) (SGG)
                 (PIU) (PIU) (DLTU) (DLTU) (PIU) (PIU) (SGU) (SGG)
                 (PIG) (PIG) (PHIU) (PHIU) (SGU) (SGG) (DLTU) (DLTU)
                 (PIG) (PIG) (PIU) (PIU) (SGU) (DLTG) (DLTG) (SGG)
                 (PHIG) (PHIG) (SGU) (PIU) (PIU) (DLTG) (DLTG)
                 (SGG) (PIG) (PIG) (SGU) (PIU) (PIU) (DLTU) (DLTU)
                 (SGU) (SGG) (PIG) (PIG) (SGG) (PHIU) (PHIU) (DLTG)
                 (DLTG) (PIU) (PIU) (PHIG) (PHIG) (PIG) (PIG) (SGG)
                 (DLTU) (DLTU) (SGU) (DLTG) (DLTG) (PIU) (PIU)
                 (SGU) (SGG) (PIU) (PIU) (PIG) (PIG) (DLTU) (DLTU)
                 (SGU) (PIG) (PIG) (SGG) (SGU)
 The electronic state is 1-SGG.
 Alpha  occ. eigenvalues --   -0.59181
 Alpha virt. eigenvalues --    0.04729   0.04730   0.15994   0.17356   0.17356
 Alpha virt. eigenvalues --    0.22866   0.23321   0.23321   0.32698   0.36247
 Alpha virt. eigenvalues --    0.60116   0.60116   0.61078   0.66150   0.66150
 Alpha virt. eigenvalues --    0.68700   0.69965   0.69965   0.71032   0.71032
 Alpha virt. eigenvalues --    0.73501   0.73501   0.81988   1.11871   1.43922
 Alpha virt. eigenvalues --    1.43922   1.51636   1.51636   1.57285   1.73836
 Alpha virt. eigenvalues --    1.80427   1.80427   1.80724   1.80724   1.81346
 Alpha virt. eigenvalues --    1.81346   1.85128   1.85646   1.85646   1.87166
 Alpha virt. eigenvalues --    1.87448   1.87448   2.31053   2.36194   2.36194
 Alpha virt. eigenvalues --    2.39590   2.39590   2.75156   3.06294   3.06294
 Alpha virt. eigenvalues --    3.48121   3.52481   3.52481   3.67107   3.67107
 Alpha virt. eigenvalues --    4.23136   4.25288   4.47620   4.47620   5.97641
 Alpha virt. eigenvalues --    6.24955   6.24955   6.55479   6.55479   7.14581
 Alpha virt. eigenvalues --    7.14581   7.15405   7.15405   7.68658   7.68658
 Alpha virt. eigenvalues --    7.71915   7.87272   7.87272   7.99574   8.39405
 Alpha virt. eigenvalues --    8.39405   8.40710   8.40710   8.60420   9.00103
 Alpha virt. eigenvalues --    9.08128   9.08128   9.12206   9.12206   9.68523
 Alpha virt. eigenvalues --    9.68523  10.78199  12.80438  12.80438  13.21180
 Alpha virt. eigenvalues --   16.41961
          Condensed to atoms (all electrons):
               1          2
     1  H    0.579193   0.420807
     2  H    0.420807   0.579193
 Mulliken charges:
               1
     1  H    0.000000
     2  H    0.000000
 Sum of Mulliken charges =   0.00000
 Mulliken charges with hydrogens summed into heavy atoms:
               1
 Electronic spatial extent (au):  <R**2>=              5.1975
 Charge=              0.0000 electrons
 Dipole moment (field-independent basis, Debye):
    X=              0.0000    Y=             -0.0000    Z=              0.0000  Tot=              0.0000
 Quadrupole moment (field-independent basis, Debye-Ang):
   XX=             -2.1067   YY=             -2.1067   ZZ=             -1.4264
   XY=             -0.0000   XZ=             -0.0000   YZ=              0.0000
 Traceless Quadrupole moment (field-independent basis, Debye-Ang):
   XX=             -0.2268   YY=             -0.2268   ZZ=              0.4535
   XY=             -0.0000   XZ=             -0.0000   YZ=              0.0000
 Octapole moment (field-independent basis, Debye-Ang**2):
  XXX=             -0.0000  YYY=              0.0000  ZZZ=              0.0000  XYY=             -0.0000
  XXY=              0.0000  XXZ=             -0.0000  XZZ=             -0.0000  YZZ=              0.0000
  YYZ=             -0.0000  XYZ=              0.0000
 Hexadecapole moment (field-independent basis, Debye-Ang**3):
 XXXX=             -2.1176 YYYY=             -2.1176 ZZZZ=             -2.7511 XXXY=             -0.0000
 XXXZ=              0.0000 YYYX=             -0.0000 YYYZ=              0.0000 ZZZX=              0.0000
 ZZZY=              0.0000 XXYY=             -0.7059 XXZZ=             -0.8306 YYZZ=             -0.8306
 XXYZ=              0.0000 YYXZ=              0.0000 ZZXY=             -0.0000
 N-N= 7.055696145600D-01 E-N=-3.610431710067D+00  KE= 1.116256308279D+00
 Symmetry AG   KE= 1.116256308279D+00
 Symmetry B1G  KE=-2.105125031680D-53
 Symmetry B2G  KE= 1.179319324773D-30
 Symmetry B3G  KE= 1.179319324773D-30
 Symmetry AU   KE=-4.945932118823D-54
 Symmetry B1U  KE= 5.998186208828D-20
 Symmetry B2U  KE= 3.483428545365D-33
 Symmetry B3U  KE= 3.483428545365D-33
 No NMR shielding tensors so no spin-rotation constants.
 Leave Link  601 at Tue Aug 13 16:45:19 2024, MaxMem=  1310720000 cpu:               1.0 elap:               0.1
 (Enter /opt/cluster/programs/g16-c.01/g16/l701.exe)
 ... and contract with generalized density number  7.
 Compute integral first derivatives.
 Leave Link  701 at Tue Aug 13 16:45:19 2024, MaxMem=  1310720000 cpu:               1.0 elap:               0.1
 (Enter /opt/cluster/programs/g16-c.01/g16/l702.exe)
 L702 exits ... SP integral derivatives will be done elsewhere.
 Leave Link  702 at Tue Aug 13 16:45:19 2024, MaxMem=  1310720000 cpu:               0.3 elap:               0.0
 (Enter /opt/cluster/programs/g16-c.01/g16/l703.exe)
 Integral derivatives from FoFJK, PRISM(SPDF).
 Compute integral first derivatives, UseDBF=F ICtDFT=           0.
 Calling FoFJK, ICntrl=  10002127 FMM=F ISym2X=1 I1Cent= 0 IOpClX= 0 NMat=1 NMatS=1 NMatT=0.
 FoFJK:  IHMeth= 1 ICntrl=10002127 DoSepK=F KAlg= 0 I1Cent=           0 FoldK=F
 IRaf=         0 NMat=       1 IRICut=       1 DoRegI=T DoRafI=F ISym2E= 1 IDoP0=0 IntGTp=1.
 FoFCou: FMM=F IPFlag=           0 FMFlag=      100000 FMFlg1=         800
         NFxFlg=           0 DoJE=F BraDBF=F KetDBF=F FulRan=T
         wScrn=  0.000000 ICntrl=  10002127 IOpCl=  0 I1Cent=           0 NGrid=           0
         NMat0=    1 NMatS0=      1 NMatT0=    0 NMatD0=    1 NMtDS0=    0 NMtDT0=    0
 Petite list used in FoFCou.
 Leave Link  703 at Tue Aug 13 16:45:20 2024, MaxMem=  1310720000 cpu:               3.4 elap:               0.4
 (Enter /opt/cluster/programs/g16-c.01/g16/l716.exe)
 Dipole        =-1.92289776D-27-1.43927528D-34 1.38777878D-14
 ***** Axes restored to original set *****
 -------------------------------------------------------------------
 Center     Atomic                   Forces (Hartrees/Bohr)
 Number     Number              X              Y              Z
 -------------------------------------------------------------------
      1        1           0.000000000    0.000000000    0.005442247
      2        1          -0.000000000   -0.000000000   -0.005442247
 -------------------------------------------------------------------
 Cartesian Forces:  Max     0.005442247 RMS     0.003142083
 Leave Link  716 at Tue Aug 13 16:45:20 2024, MaxMem=  1310720000 cpu:               0.3 elap:               0.0
 (Enter /opt/cluster/programs/g16-c.01/g16/l103.exe)

 GradGradGradGradGradGradGradGradGradGradGradGradGradGradGradGradGradGrad
 Berny optimization.
 FormGI is forming the generalized inverse of G from B-inverse, IUseBI=4.
 Internal  Forces:  Max     0.005442247 RMS     0.005442247
 Search for a local minimum.
 Step number   1 out of a maximum of   20
 All quantities printed in internal units (Hartrees-Bohrs-Radians)
 RMS Force = .54422D-02 SwitMx=.10000D-02 MixMth= 1
 Mixed Optimization -- RFO/linear search
 Second derivative matrix not updated -- first step.
 The second derivative matrix:
                          R1
           R1           0.37819
 ITU=  0
     Eigenvalues ---    0.37819
 RFO step:  Lambda=-7.82992284D-05 EMin= 3.78189214D-01
 Linear search not attempted -- first point.
 Iteration  1 RMS(Cart)=  0.01017336 RMS(Int)=  0.00000000
 Iteration  2 RMS(Cart)=  0.00000000 RMS(Int)=  0.00000000
 ITry= 1 IFail=0 DXMaxC= 7.19D-03 DCOld= 1.00D+10 DXMaxT= 3.00D-01 DXLimC= 3.00D+00 Rises=F
 ClnCor:  largest displacement from symmetrization is 4.40D-19 for atom     1.
 Variable       Old X    -DE/DX   Delta X   Delta X   Delta X     New X
                                 (Linear)    (Quad)   (Total)
    R1        1.41729  -0.00544   0.00000  -0.01439  -0.01439   1.40291
         Item               Value     Threshold  Converged?
 Maximum Force            0.005442     0.000450     NO 
 RMS     Force            0.005442     0.000300     NO 
 Maximum Displacement     0.007194     0.001800     NO 
 RMS     Displacement     0.010173     0.001200     NO 
 Predicted change in Energy=-3.915772D-05
 Lowest energy point so far.  Saving SCF results.
 GradGradGradGradGradGradGradGradGradGradGradGradGradGradGradGradGradGrad

 Leave Link  103 at Tue Aug 13 16:45:20 2024, MaxMem=  1310720000 cpu:               0.1 elap:               0.0
 (Enter /opt/cluster/programs/g16-c.01/g16/l202.exe)
                          Input orientation:                          
 ---------------------------------------------------------------------
 Center     Atomic      Atomic             Coordinates (Angstroms)
 Number     Number       Type             X           Y           Z
 ---------------------------------------------------------------------
      1          1           0        0.000000    0.000000    0.003807
      2          1           0        0.000000    0.000000    0.746193
 ---------------------------------------------------------------------
 Stoichiometry    H2
 Framework group  D*H[C*(H.H)]
 Deg. of freedom     1
 Full point group                 D*H     NOp   8
 RotChk:  IX=0 Diff= 0.00D+00
 Largest Abelian subgroup         D2H     NOp   8
 Largest concise Abelian subgroup C2      NOp   2
                         Standard orientation:                         
 ---------------------------------------------------------------------
 Center     Atomic      Atomic             Coordinates (Angstroms)
 Number     Number       Type             X           Y           Z
 ---------------------------------------------------------------------
      1          1           0        0.000000    0.000000    0.371193
      2          1           0        0.000000    0.000000   -0.371193
 ---------------------------------------------------------------------
 Rotational constants (GHZ):           0.0000000        1819.7085619        1819.7085619
 Leave Link  202 at Tue Aug 13 16:45:20 2024, MaxMem=  1310720000 cpu:               0.0 elap:               0.0
 (Enter /opt/cluster/programs/g16-c.01/g16/l301.exe)
 Standard basis: Aug-CC-pVQZ (5D, 7F)
 Ernie: Thresh=  0.10000D-02 Tol=  0.10000D-05 Strict=F.
 There are    24 symmetry adapted cartesian basis functions of AG  symmetry.
 There are     5 symmetry adapted cartesian basis functions of B1G symmetry.
 There are    13 symmetry adapted cartesian basis functions of B2G symmetry.
 There are    13 symmetry adapted cartesian basis functions of B3G symmetry.
 There are     5 symmetry adapted cartesian basis functions of AU  symmetry.
 There are    24 symmetry adapted cartesian basis functions of B1U symmetry.
 There are    13 symmetry adapted cartesian basis functions of B2U symmetry.
 There are    13 symmetry adapted cartesian basis functions of B3U symmetry.
 There are    19 symmetry adapted basis functions of AG  symmetry.
 There are     5 symmetry adapted basis functions of B1G symmetry.
 There are    11 symmetry adapted basis functions of B2G symmetry.
 There are    11 symmetry adapted basis functions of B3G symmetry.
 There are     5 symmetry adapted basis functions of AU  symmetry.
 There are    19 symmetry adapted basis functions of B1U symmetry.
 There are    11 symmetry adapted basis functions of B2U symmetry.
 There are    11 symmetry adapted basis functions of B3U symmetry.
    92 basis functions,   114 primitive gaussians,   110 cartesian basis functions
     1 alpha electrons        1 beta electrons
       nuclear repulsion energy         0.7128054739 Hartrees.
 IExCor=    0 DFT=F Ex=HF Corr=None ExCW=0 ScaHFX=  1.000000
 ScaDFX=  1.000000  1.000000  1.000000  1.000000 ScalE2=  1.000000  1.000000
 IRadAn=      5 IRanWt=     -1 IRanGd=            0 ICorTp=0 IEmpDi=  4
 NAtoms=    2 NActive=    2 NUniq=    1 SFac= 4.00D+00 NAtFMM=   60 NAOKFM=F Big=F
 Integral buffers will be    131072 words long.
 Raffenetti 1 integral format.
 Two-electron integral symmetry is turned on.
 Leave Link  301 at Tue Aug 13 16:45:20 2024, MaxMem=  1310720000 cpu:               0.3 elap:               0.0
 (Enter /opt/cluster/programs/g16-c.01/g16/l302.exe)
 NPDir=0 NMtPBC=     1 NCelOv=     1 NCel=       1 NClECP=     1 NCelD=      1
         NCelK=      1 NCelE2=     1 NClLst=     1 CellRange=     0.0.
 One-electron integrals computed using PRISM.
 One-electron integral symmetry used in STVInt
 NBasis=    92 RedAO= T EigKep=  3.34D-05  NBF=    19     5    11    11     5    19    11    11
 NBsUse=    92 1.00D-06 EigRej= -1.00D+00 NBFU=    19     5    11    11     5    19    11    11
 Leave Link  302 at Tue Aug 13 16:45:20 2024, MaxMem=  1310720000 cpu:               1.0 elap:               0.1
 (Enter /opt/cluster/programs/g16-c.01/g16/l303.exe)
 DipDrv:  MaxL=1.
 Leave Link  303 at Tue Aug 13 16:45:20 2024, MaxMem=  1310720000 cpu:               0.3 elap:               0.0
 (Enter /opt/cluster/programs/g16-c.01/g16/l401.exe)
 Initial guess from the checkpoint file:  "h2.chk"
 B after Tr=    -0.000000    0.000000    0.000000
         Rot=    1.000000    0.000000    0.000000    0.000000 Ang=   0.00 deg.
 Guess basis will be translated and rotated to current coordinates.
 JPrj=2 DoOrth=T DoCkMO=T.
 Initial guess orbital symmetries:
       Occupied  (SGG)
       Virtual   (SGU) (SGG) (SGU) (PIU) (PIU) (SGG) (PIG) (PIG)
                 (SGG) (SGU) (DLTG) (DLTG) (SGU) (PIG) (PIG) (SGG)
                 (PIU) (PIU) (DLTU) (DLTU) (PIU) (PIU) (SGU) (SGG)
                 (PIG) (PIG) (PHIU) (PHIU) (SGU) (SGG) (DLTU) (DLTU)
                 (PIG) (PIG) (PIU) (PIU) (SGU) (DLTG) (DLTG) (SGG)
                 (PHIG) (PHIG) (SGU) (PIU) (PIU) (DLTG) (DLTG)
                 (SGG) (PIG) (PIG) (SGU) (PIU) (PIU) (DLTU) (DLTU)
                 (SGU) (SGG) (PIG) (PIG) (SGG) (PHIU) (PHIU) (DLTG)
                 (DLTG) (PIU) (PIU) (PHIG) (PHIG) (PIG) (PIG) (SGG)
                 (DLTU) (DLTU) (SGU) (DLTG) (DLTG) (PIU) (PIU)
                 (SGU) (SGG) (PIU) (PIU) (PIG) (PIG) (DLTU) (DLTU)
                 (SGU) (PIG) (PIG) (SGG) (SGU)
 The electronic state of the initial guess is 1-SGG.
 Leave Link  401 at Tue Aug 13 16:45:20 2024, MaxMem=  1310720000 cpu:               0.8 elap:               0.1
 (Enter /opt/cluster/programs/g16-c.01/g16/l502.exe)
 Keep R1 ints in memory in symmetry-blocked form, NReq=13066297.
 FoFCou: FMM=F IPFlag=           0 FMFlag=           0 FMFlg1=           0
         NFxFlg=           0 DoJE=F BraDBF=F KetDBF=F FulRan=T
         wScrn=  0.000000 ICntrl=       600 IOpCl=  0 I1Cent=           0 NGrid=           0
         NMat0=    1 NMatS0=   4278 NMatT0=    0 NMatD0=    1 NMtDS0=    0 NMtDT0=    0
 Petite list used in FoFCou.
 Closed shell SCF:
 Using DIIS extrapolation, IDIIS=  1040.
 NGot=  1310720000 LenX=  1309507963 LenY=  1309495422
 Requested convergence on RMS density matrix=1.00D-08 within 128 cycles.
 Requested convergence on MAX density matrix=1.00D-06.
 Requested convergence on             energy=1.00D-06.
 No special actions if energy rises.

 Cycle   1  Pass 1  IDiag  1:
 E= -1.13344607087426    
 DIIS: error= 1.09D-03 at cycle   1 NSaved=   1.
 NSaved= 1 IEnMin= 1 EnMin= -1.13344607087426     IErMin= 1 ErrMin= 1.09D-03
 ErrMax= 1.09D-03  0.00D+00 EMaxC= 1.00D-01 BMatC= 1.31D-05 BMatP= 1.31D-05
 IDIUse=3 WtCom= 9.89D-01 WtEn= 1.09D-02
 Coeff-Com:  0.100D+01
 Coeff-En:   0.100D+01
 Coeff:      0.100D+01
 Gap=     0.643 Goal=   None    Shift=    0.000
 GapD=    0.643 DampG=2.000 DampE=1.000 DampFc=2.0000 IDamp=-1.
 RMSDP=1.49D-05 MaxDP=3.77D-04              OVMax= 1.69D-03

 Cycle   2  Pass 1  IDiag  1:
 E= -1.13345591359374     Delta-E=       -0.000009842719 Rises=F Damp=F
 DIIS: error= 1.43D-04 at cycle   2 NSaved=   2.
 NSaved= 2 IEnMin= 2 EnMin= -1.13345591359374     IErMin= 2 ErrMin= 1.43D-04
 ErrMax= 1.43D-04  0.00D+00 EMaxC= 1.00D-01 BMatC= 1.37D-07 BMatP= 1.31D-05
 IDIUse=3 WtCom= 9.99D-01 WtEn= 1.43D-03
 Coeff-Com: -0.922D-01 0.109D+01
 Coeff-En:   0.000D+00 0.100D+01
 Coeff:     -0.921D-01 0.109D+01
 Gap=     0.641 Goal=   None    Shift=    0.000
 RMSDP=2.58D-06 MaxDP=5.61D-05 DE=-9.84D-06 OVMax= 3.15D-04

 Cycle   3  Pass 1  IDiag  1:
 E= -1.13345613298233     Delta-E=       -0.000000219389 Rises=F Damp=F
 DIIS: error= 1.15D-05 at cycle   3 NSaved=   3.
 NSaved= 3 IEnMin= 3 EnMin= -1.13345613298233     IErMin= 3 ErrMin= 1.15D-05
 ErrMax= 1.15D-05  0.00D+00 EMaxC= 1.00D-01 BMatC= 1.64D-09 BMatP= 1.37D-07
 IDIUse=1 WtCom= 1.00D+00 WtEn= 0.00D+00
 Coeff-Com:  0.174D-01-0.222D+00 0.121D+01
 Coeff:      0.174D-01-0.222D+00 0.121D+01
 Gap=     0.641 Goal=   None    Shift=    0.000
 RMSDP=5.18D-07 MaxDP=1.42D-05 DE=-2.19D-07 OVMax= 4.89D-05

 Cycle   4  Pass 1  IDiag  1:
 E= -1.13345613683008     Delta-E=       -0.000000003848 Rises=F Damp=F
 DIIS: error= 1.14D-06 at cycle   4 NSaved=   4.
 NSaved= 4 IEnMin= 4 EnMin= -1.13345613683008     IErMin= 4 ErrMin= 1.14D-06
 ErrMax= 1.14D-06  0.00D+00 EMaxC= 1.00D-01 BMatC= 1.47D-11 BMatP= 1.64D-09
 IDIUse=1 WtCom= 1.00D+00 WtEn= 0.00D+00
 Coeff-Com: -0.292D-02 0.396D-01-0.257D+00 0.122D+01
 Coeff:     -0.292D-02 0.396D-01-0.257D+00 0.122D+01
 Gap=     0.641 Goal=   None    Shift=    0.000
 RMSDP=7.64D-08 MaxDP=2.70D-06 DE=-3.85D-09 OVMax= 5.04D-06

 Cycle   5  Pass 1  IDiag  1:
 E= -1.13345613686650     Delta-E=       -0.000000000036 Rises=F Damp=F
 DIIS: error= 4.56D-08 at cycle   5 NSaved=   5.
 NSaved= 5 IEnMin= 5 EnMin= -1.13345613686650     IErMin= 5 ErrMin= 4.56D-08
 ErrMax= 4.56D-08  0.00D+00 EMaxC= 1.00D-01 BMatC= 3.78D-14 BMatP= 1.47D-11
 IDIUse=1 WtCom= 1.00D+00 WtEn= 0.00D+00
 Coeff-Com:  0.360D-03-0.493D-02 0.328D-01-0.186D+00 0.116D+01
 Coeff:      0.360D-03-0.493D-02 0.328D-01-0.186D+00 0.116D+01
 Gap=     0.641 Goal=   None    Shift=    0.000
 RMSDP=5.24D-09 MaxDP=1.30D-07 DE=-3.64D-11 OVMax= 2.90D-07

 SCF Done:  E(RHF) =  -1.13345613687     A.U. after    5 cycles
            NFock=  5  Conv=0.52D-08     -V/T= 2.0084
 KE= 1.124024349574D+00 PE=-3.628265121105D+00 EE= 6.579791607802D-01
 Leave Link  502 at Tue Aug 13 16:45:20 2024, MaxMem=  1310720000 cpu:               2.9 elap:               0.4
 (Enter /opt/cluster/programs/g16-c.01/g16/l508.exe)
 QCSCF skips out because SCF is already converged.
 Leave Link  508 at Tue Aug 13 16:45:20 2024, MaxMem=  1310720000 cpu:               0.0 elap:               0.0
 (Enter /opt/cluster/programs/g16-c.01/g16/l801.exe)
 Windowed orbitals will be sorted by symmetry type.
 Range of M.O.s used for correlation:     1    92
 NBasis=    92 NAE=     1 NBE=     1 NFC=     0 NFV=     0
 NROrb=     92 NOA=     1 NOB=     1 NVA=    91 NVB=    91

 **** Warning!!: The largest alpha MO coefficient is  0.77478568D+02

 Leave Link  801 at Tue Aug 13 16:45:21 2024, MaxMem=  1310720000 cpu:               0.3 elap:               0.0
 (Enter /opt/cluster/programs/g16-c.01/g16/l804.exe)
 Closed-shell transformation, MDV=  1310720000 ITran=4 ISComp=2.
 Semi-Direct transformation.
 ModeAB=           4 MOrb=             1 LenV=    1310341315
 LASXX=        49960 LTotXX=       49960 LenRXX=      102232
 LTotAB=       52272 MaxLAS=      310408 LenRXY=           0
 NonZer=      152192 LenScr=      785920 LnRSAI=      310408
 LnScr1=      930816 LExtra=           0 Total=      2129376
 MaxDsk=          -1 SrtSym=           T ITran=            4
 DoSDTr:  NPSUse=  8
 JobTyp=0 Pass  1:  I=   1 to   1.
 (rs|ai) integrals will be sorted in core.
 Complete sort for first half transformation.
 First half transformation complete.
 Complete sort for second half transformation.
 Second half transformation complete.
 Spin components of T(2) and E(2):
     alpha-alpha T2 =       0.0000000000D+00 E2=      0.0000000000D+00
     alpha-beta  T2 =       0.1044914466D-01 E2=     -0.3325825586D-01
     beta-beta   T2 =       0.0000000000D+00 E2=      0.0000000000D+00
 ANorm=    0.1005210995D+01
 E2 =    -0.3325825586D-01 EUMP2 =    -0.11667143927302D+01
 Leave Link  804 at Tue Aug 13 16:45:21 2024, MaxMem=  1310720000 cpu:               1.7 elap:               0.2
 (Enter /opt/cluster/programs/g16-c.01/g16/l913.exe)
 CIDS:  MDV=  1310720000.
 IFCWin=0 IBDFC=1 NFBD=     0     0 NFCmp=     0     0 NFFFC=     0     0
 Using DD3R+UMP44R for 1st iteration.
 Using DD4RQ for 2nd and later iterations.
 Keep R2 and R3 ints in memory in symmetry-blocked form, NReq=13069308.
 FoFCou: FMM=F IPFlag=           0 FMFlag=           0 FMFlg1=           0
         NFxFlg=           0 DoJE=F BraDBF=F KetDBF=F FulRan=T
         wScrn=  0.000000 ICntrl=       600 IOpCl=  0 I1Cent=           0 NGrid=           0
         NMat0=    1 NMatS0=   4278 NMatT0=    0 NMatD0=    1 NMtDS0=    0 NMtDT0=    0
 Petite list used in FoFCou.
 CIDS: In Core Option IDoMem=           1.
 Coupled Cluster theory with single and double substitutions
 ===========================================================
 Iterations=  50 Convergence= 0.100D-07
 Produce multiple copies of IABC intergrals
 Iteration Nr.   1
 **********************
 DD1Dir will call FoFMem   1 times, MxPair=         2
 NAB=     1 NAA=     0 NBB=     0.
 MP4(R+Q)=  0.34752033D-03
 Maximum subspace dimension=  5
 A-vector RMS=  1.3534691D-03 Max=  6.6151034D-03 conv= 1.00D-06.
 RLE energy=       -0.0387257643
 E3=       -0.50453591D-02        EUMP3=      -0.11717597518D+01
 E4(DQ)=   -0.14110639D-02        UMP4(DQ)=   -0.11731708157D+01
 E4(SDQ)=  -0.14833221D-02        UMP4(SDQ)=  -0.11732430739D+01
 VARIATIONAL ENERGIES WITH THE FIRST-ORDER WAVEFUNCTION:
 DE(Corr)= -0.37953833E-01 E(Corr)=     -1.1714099695    
 NORM(A)=   0.10080398D+01
 Iteration Nr.   2
 **********************
 DD1Dir will call FoFMem   1 times, MxPair=         2
 NAB=     1 NAA=     0 NBB=     0.
 A-vector RMS=  3.0300748D-04 Max=  2.1495025D-03 conv= 1.00D-06.
 RLE energy=       -0.0403723042
 DE(Corr)= -0.39851120E-01 E(CORR)=     -1.1733072574     Delta=-1.90D-03
 NORM(A)=   0.10090596D+01
 Iteration Nr.   3
 **********************
 DD1Dir will call FoFMem   1 times, MxPair=         2
 NAB=     1 NAA=     0 NBB=     0.
 A-vector RMS=  8.6967403D-05 Max=  3.3038744D-04 conv= 1.00D-06.
 RLE energy=       -0.0404037370
 DE(Corr)= -0.40364144E-01 E(CORR)=     -1.1738202813     Delta=-5.13D-04
 NORM(A)=   0.10091398D+01
 Iteration Nr.   4
 **********************
 DD1Dir will call FoFMem   1 times, MxPair=         2
 NAB=     1 NAA=     0 NBB=     0.
 A-vector RMS=  1.6969274D-05 Max=  6.8860484D-05 conv= 1.00D-06.
 RLE energy=       -0.0404119484
 DE(Corr)= -0.40408069E-01 E(CORR)=     -1.1738642058     Delta=-4.39D-05
 NORM(A)=   0.10091513D+01
 Iteration Nr.   5
 **********************
 DD1Dir will call FoFMem   1 times, MxPair=         2
 NAB=     1 NAA=     0 NBB=     0.
 A-vector RMS=  3.3580917D-06 Max=  8.8171479D-06 conv= 1.00D-06.
 RLE energy=       -0.0404113145
 DE(Corr)= -0.40411338E-01 E(CORR)=     -1.1738674752     Delta=-3.27D-06
 NORM(A)=   0.10091510D+01
 Iteration Nr.   6
 **********************
 DD1Dir will call FoFMem   1 times, MxPair=         2
 NAB=     1 NAA=     0 NBB=     0.
 A-vector RMS=  8.7151328D-07 Max=  2.8007838D-06 conv= 1.00D-06.
 RLE energy=       -0.0404112125
 DE(Corr)= -0.40411239E-01 E(CORR)=     -1.1738673755     Delta= 9.97D-08
 NORM(A)=   0.10091509D+01
 Iteration Nr.   7
 **********************
 DD1Dir will call FoFMem   1 times, MxPair=         2
 NAB=     1 NAA=     0 NBB=     0.
 A-vector RMS=  1.8104921D-07 Max=  5.9263725D-07 conv= 1.00D-06.
 RLE energy=       -0.0404112203
 DE(Corr)= -0.40411209E-01 E(CORR)=     -1.1738673458     Delta= 2.97D-08
 NORM(A)=   0.10091508D+01
 Iteration Nr.   8
 **********************
 DD1Dir will call FoFMem   1 times, MxPair=         2
 NAB=     1 NAA=     0 NBB=     0.
 A-vector RMS=  3.0997513D-08 Max=  1.0788335D-07 conv= 1.00D-06.
 RLE energy=       -0.0404112119
 DE(Corr)= -0.40411213E-01 E(CORR)=     -1.1738673500     Delta=-4.21D-09
 NORM(A)=   0.10091508D+01
 CI/CC converged in    8 iterations to DelEn=-4.21D-09 Conv= 1.00D-08 ErrA1= 3.10D-08 Conv= 1.00D-06
 Wavefunction amplitudes converged. E(Corr)=     -1.1738673500    
 Largest amplitude= 3.42D-02

 Z-amplitude iterations

 Iteration Nr.   1
 **********************
 DD1Dir will call FoFMem   1 times, MxPair=         2
 NAB=     1 NAA=     0 NBB=     0.
 A-vector RMS=  7.3163525D-05 Max=  4.2265846D-04 conv= 1.00D-06.
 RLE energy=       -0.0404070795
 DE(Z)= -0.39799496E-01 E(Z)=     -1.1732556327     Delta= 6.12D-04
 NORM(A)=   0.10091489D+01
 Iteration Nr.   2
 **********************
 DD1Dir will call FoFMem   1 times, MxPair=         2
 NAB=     1 NAA=     0 NBB=     0.
 A-vector RMS=  7.2809379D-05 Max=  4.2024884D-04 conv= 1.00D-06.
 RLE energy=       -0.0404023396
 DE(Z)= -0.39798811E-01 E(Z)=     -1.1732549474     Delta= 6.85D-07
 NORM(A)=   0.10091468D+01
 Iteration Nr.   3
 **********************
 DD1Dir will call FoFMem   1 times, MxPair=         2
 NAB=     1 NAA=     0 NBB=     0.
 A-vector RMS=  7.2299768D-05 Max=  4.1753504D-04 conv= 1.00D-06.
 RLE energy=       -0.0403744394
 DE(Z)= -0.39798021E-01 E(Z)=     -1.1732541577     Delta= 7.90D-07
 NORM(A)=   0.10091340D+01
 Iteration Nr.   4
 **********************
 DD1Dir will call FoFMem   1 times, MxPair=         2
 NAB=     1 NAA=     0 NBB=     0.
 A-vector RMS=  6.9508545D-05 Max=  4.0145846D-04 conv= 1.00D-06.
 RLE energy=       -0.0402165305
 DE(Z)= -0.39793387E-01 E(Z)=     -1.1732495237     Delta= 4.63D-06
 NORM(A)=   0.10090621D+01
 Iteration Nr.   5
 **********************
 DD1Dir will call FoFMem   1 times, MxPair=         2
 NAB=     1 NAA=     0 NBB=     0.
 A-vector RMS=  5.3759754D-05 Max=  3.1049424D-04 conv= 1.00D-06.
 RLE energy=       -0.0396776515
 DE(Z)= -0.39767159E-01 E(Z)=     -1.1732232955     Delta= 2.62D-05
 NORM(A)=   0.10088189D+01
 Iteration Nr.   6
 **********************
 DD1Dir will call FoFMem   1 times, MxPair=         2
 NAB=     1 NAA=     0 NBB=     0.
 A-vector RMS=  9.3560049D-09 Max=  3.5840099D-08 conv= 1.00D-06.
 RLE energy=       -0.0396776482
 DE(Z)= -0.39677650E-01 E(Z)=     -1.1731337865     Delta= 8.95D-05
 NORM(A)=   0.10088189D+01
 Iteration Nr.   7
 **********************
 DD1Dir will call FoFMem   1 times, MxPair=         2
 NAB=     1 NAA=     0 NBB=     0.
 A-vector RMS=  1.5371291D-09 Max=  6.2037471D-09 conv= 1.00D-06.
 RLE energy=       -0.0396776480
 DE(Z)= -0.39677648E-01 E(Z)=     -1.1731337850     Delta= 1.54D-09
 NORM(A)=   0.10088189D+01
 CI/CC converged in    7 iterations to DelEn= 1.54D-09 Conv= 1.00D-08 ErrA1= 1.54D-09 Conv= 1.00D-06
 Z-amplitudes converged.
 Discarding MO integrals.
 Leave Link  913 at Tue Aug 13 16:45:21 2024, MaxMem=  1310720000 cpu:               4.4 elap:               0.6
 (Enter /opt/cluster/programs/g16-c.01/g16/l1111.exe)
 Unit  1 TFree=      37275302 TCopy=        381353.
 Selected functions:
 Compute CCSD 2PDM.
 Form Post-SCF non-separable gradient here.
 IO1PDM=    0 IOW=    0 IO2PDM=    0.
 MDV=    1310720000.
 Leave Link 1111 at Tue Aug 13 16:46:39 2024, MaxMem=  1310720000 cpu:             608.6 elap:              77.9
 (Enter /opt/cluster/programs/g16-c.01/g16/l1002.exe)
 Minotr:  Closed shell wavefunction.
          Computing CCSD/QCISD derivatives.
          Using Z-Vector for PSCF gradient.
          Skipping F1 and S1 gradient terms here.
          IDoAtm=11
          Direct CPHF calculation.
          Differentiating once with respect to electric field.
                with respect to dipole field.
          Differentiating once with respect to nuclear coordinates.
          Using symmetry in CPHF.
          Requested convergence is 1.0D-10 RMS, and 1.0D-09 maximum.
          NewPWx=F KeepS1=T KeepF1=T KeepIn=T MapXYZ=F SortEE=F KeepMc=T.
 Keep R1 ints in memory in symmetry-blocked form, NReq=13066959.
 FoFCou: FMM=F IPFlag=           0 FMFlag=           0 FMFlg1=           0
         NFxFlg=           0 DoJE=F BraDBF=F KetDBF=F FulRan=T
         wScrn=  0.000000 ICntrl=       600 IOpCl=  0 I1Cent=           0 NGrid=           0
         NMat0=    1 NMatS0=   4278 NMatT0=    0 NMatD0=    1 NMtDS0=    0 NMtDT0=    0
 Petite list used in FoFCou.
          MDV=    1310720000 using IRadAn=       5.
          Solving linear equations separately, MaxMat=       0.
          There are     1 degrees of freedom in the 1st order CPHF.  IDoFFX=0 NUNeed=     1.
 LinEq1:  Iter=  0 NonCon=     1 RMS=2.52D-03 Max=1.58D-02 NDo=     1
 AX will form     1 AO Fock derivatives at one time.
 LinEq1:  Iter=  1 NonCon=     1 RMS=1.34D-04 Max=6.88D-04 NDo=     1
 LinEq1:  Iter=  2 NonCon=     1 RMS=6.75D-06 Max=3.61D-05 NDo=     1
 LinEq1:  Iter=  3 NonCon=     1 RMS=4.15D-07 Max=2.26D-06 NDo=     1
 LinEq1:  Iter=  4 NonCon=     1 RMS=1.74D-08 Max=1.09D-07 NDo=     1
 LinEq1:  Iter=  5 NonCon=     1 RMS=1.15D-09 Max=7.34D-09 NDo=     1
 LinEq1:  Iter=  6 NonCon=     0 RMS=4.05D-11 Max=1.79D-10 NDo=     1
 Linear equations converged to 1.000D-10 1.000D-09 after     6 iterations.
 End of Minotr F.D. properties file   721 does not exist.
 End of Minotr F.D. properties file   722 does not exist.
 End of Minotr F.D. properties file   788 does not exist.
 Leave Link 1002 at Tue Aug 13 16:46:40 2024, MaxMem=  1310720000 cpu:               4.8 elap:               0.6
 (Enter /opt/cluster/programs/g16-c.01/g16/l701.exe)
 ... and contract with generalized density number  7.
 Compute integral first derivatives.
 Leave Link  701 at Tue Aug 13 16:46:40 2024, MaxMem=  1310720000 cpu:               1.0 elap:               0.1
 (Enter /opt/cluster/programs/g16-c.01/g16/l702.exe)
 L702 exits ... SP integral derivatives will be done elsewhere.
 Leave Link  702 at Tue Aug 13 16:46:40 2024, MaxMem=  1310720000 cpu:               0.3 elap:               0.0
 (Enter /opt/cluster/programs/g16-c.01/g16/l703.exe)
 Integral derivatives from FoFJK, PRISM(SPDF).
 Compute integral first derivatives, UseDBF=F ICtDFT=           0.
 Calling FoFJK, ICntrl=  10002127 FMM=F ISym2X=1 I1Cent= 0 IOpClX= 0 NMat=1 NMatS=1 NMatT=0.
 FoFJK:  IHMeth= 1 ICntrl=10002127 DoSepK=F KAlg= 0 I1Cent=           0 FoldK=F
 IRaf=         0 NMat=       1 IRICut=       1 DoRegI=T DoRafI=F ISym2E= 1 IDoP0=0 IntGTp=1.
 FoFCou: FMM=F IPFlag=           0 FMFlag=      100000 FMFlg1=         800
         NFxFlg=           0 DoJE=F BraDBF=F KetDBF=F FulRan=T
         wScrn=  0.000000 ICntrl=  10002127 IOpCl=  0 I1Cent=           0 NGrid=           0
         NMat0=    1 NMatS0=      1 NMatT0=    0 NMatD0=    1 NMtDS0=    0 NMtDT0=    0
 Petite list used in FoFCou.
 Leave Link  703 at Tue Aug 13 16:46:41 2024, MaxMem=  1310720000 cpu:               3.4 elap:               0.4
 (Enter /opt/cluster/programs/g16-c.01/g16/l716.exe)
 Dipole        = 3.13658491D-28-7.25044916D-35-1.26565425D-14
 ***** Axes restored to original set *****
 -------------------------------------------------------------------
 Center     Atomic                   Forces (Hartrees/Bohr)
 Number     Number              X              Y              Z
 -------------------------------------------------------------------
      1        1           0.000000000    0.000000000    0.000272841
      2        1          -0.000000000   -0.000000000   -0.000272841
 -------------------------------------------------------------------
 Cartesian Forces:  Max     0.000272841 RMS     0.000157525
 Leave Link  716 at Tue Aug 13 16:46:41 2024, MaxMem=  1310720000 cpu:               0.3 elap:               0.0
 (Enter /opt/cluster/programs/g16-c.01/g16/l103.exe)

 GradGradGradGradGradGradGradGradGradGradGradGradGradGradGradGradGradGrad
 Berny optimization.
 Using GEDIIS/GDIIS optimizer.
 Red2BG is reusing G-inverse.
 Internal  Forces:  Max     0.000272841 RMS     0.000272841
 Search for a local minimum.
 Step number   2 out of a maximum of   20
 All quantities printed in internal units (Hartrees-Bohrs-Radians)
 RMS Force = .27284D-03 SwitMx=.10000D-02 MixMth= 2
 Mixed Optimization -- En-DIIS/RFO-DIIS
 Update second derivatives using D2CorX and points    1    2
 DE= -4.14D-05 DEPred=-3.92D-05 R= 1.06D+00
 TightC=F SS=  1.41D+00  RLast= 1.44D-02 DXNew= 5.0454D-01 4.3162D-02
 Trust test= 1.06D+00 RLast= 1.44D-02 DXMaxT set to 3.00D-01
 The second derivative matrix:
                          R1
           R1           0.35930
 ITU=  1  0
 Use linear search instead of GDIIS.
     Eigenvalues ---    0.35930
 RFO step:  Lambda= 0.00000000D+00 EMin= 3.59303506D-01
 Quartic linear search produced a step of  0.05144.
 Iteration  1 RMS(Cart)=  0.00052327 RMS(Int)=  0.00000000
 Iteration  2 RMS(Cart)=  0.00000000 RMS(Int)=  0.00000000
 ITry= 1 IFail=0 DXMaxC= 3.70D-04 DCOld= 1.00D+10 DXMaxT= 3.00D-01 DXLimC= 3.00D+00 Rises=F
 ClnCor:  largest displacement from symmetrization is 2.27D-20 for atom     1.
 Variable       Old X    -DE/DX   Delta X   Delta X   Delta X     New X
                                 (Linear)    (Quad)   (Total)
    R1        1.40291  -0.00027  -0.00074   0.00000  -0.00074   1.40217
         Item               Value     Threshold  Converged?
 Maximum Force            0.000273     0.000450     YES
 RMS     Force            0.000273     0.000300     YES
 Maximum Displacement     0.000370     0.001800     YES
 RMS     Displacement     0.000523     0.001200     YES
 Predicted change in Energy=-1.035250D-07
 Optimization completed.
    -- Stationary point found.
                           ----------------------------
                           !   Optimized Parameters   !
                           ! (Angstroms and Degrees)  !
 --------------------------                            --------------------------
 ! Name  Definition              Value          Derivative Info.                !
 --------------------------------------------------------------------------------
 ! R1    R(1,2)                  0.7424         -DE/DX =   -0.0003              !
 --------------------------------------------------------------------------------
 Lowest energy point so far.  Saving SCF results.
 Largest change from initial coordinates is atom    1       0.004 Angstoms.
 GradGradGradGradGradGradGradGradGradGradGradGradGradGradGradGradGradGrad

 Leave Link  103 at Tue Aug 13 16:46:41 2024, MaxMem=  1310720000 cpu:               0.1 elap:               0.0
 (Enter /opt/cluster/programs/g16-c.01/g16/l202.exe)
                          Input orientation:                          
 ---------------------------------------------------------------------
 Center     Atomic      Atomic             Coordinates (Angstroms)
 Number     Number       Type             X           Y           Z
 ---------------------------------------------------------------------
      1          1           0        0.000000    0.000000    0.003807
      2          1           0        0.000000    0.000000    0.746193
 ---------------------------------------------------------------------
 Stoichiometry    H2
 Framework group  D*H[C*(H.H)]
 Deg. of freedom     1
 Full point group                 D*H     NOp   8
 RotChk:  IX=0 Diff= 0.00D+00
 Largest Abelian subgroup         D2H     NOp   8
 Largest concise Abelian subgroup C2      NOp   2
                         Standard orientation:                         
 ---------------------------------------------------------------------
 Center     Atomic      Atomic             Coordinates (Angstroms)
 Number     Number       Type             X           Y           Z
 ---------------------------------------------------------------------
      1          1           0        0.000000    0.000000    0.371193
      2          1           0        0.000000    0.000000   -0.371193
 ---------------------------------------------------------------------
 Rotational constants (GHZ):           0.0000000        1819.7085619        1819.7085619
 Leave Link  202 at Tue Aug 13 16:46:41 2024, MaxMem=  1310720000 cpu:               0.0 elap:               0.0
 (Enter /opt/cluster/programs/g16-c.01/g16/l601.exe)
 Copying SCF densities to generalized density rwf, IOpCl= 0 IROHF=0.

 **********************************************************************

            Population analysis using the SCF Density.

 **********************************************************************

 Orbital symmetries:
       Occupied  (SGG)
       Virtual   (SGG) (SGU) (SGU) (PIU) (PIU) (SGG) (PIG) (PIG)
                 (SGG) (SGU) (DLTG) (DLTG) (SGU) (PIG) (PIG) (SGG)
                 (PIU) (PIU) (DLTU) (DLTU) (PIU) (PIU) (SGU) (SGG)
                 (PIG) (PIG) (PHIU) (PHIU) (SGU) (SGG) (DLTU) (DLTU)
                 (PIG) (PIG) (PIU) (PIU) (DLTG) (DLTG) (SGU) (SGG)
                 (PHIG) (PHIG) (SGU) (PIU) (PIU) (DLTG) (DLTG)
                 (SGG) (PIG) (PIG) (SGU) (PIU) (PIU) (DLTU) (DLTU)
                 (SGU) (SGG) (PIG) (PIG) (SGG) (PHIU) (PHIU) (DLTG)
                 (DLTG) (PIU) (PIU) (PHIG) (PHIG) (PIG) (PIG) (SGG)
                 (DLTU) (DLTU) (SGU) (DLTG) (DLTG) (PIU) (PIU)
                 (SGU) (SGG) (PIU) (PIU) (PIG) (PIG) (DLTU) (DLTU)
                 (SGU) (PIG) (PIG) (SGG) (SGU)
 The electronic state is 1-SGG.
 Alpha  occ. eigenvalues --   -0.59414
 Alpha virt. eigenvalues --    0.04723   0.04737   0.16060   0.17374   0.17374
 Alpha virt. eigenvalues --    0.22861   0.23325   0.23325   0.32662   0.36405
 Alpha virt. eigenvalues --    0.60152   0.60152   0.61045   0.66186   0.66186
 Alpha virt. eigenvalues --    0.68715   0.69974   0.69974   0.70988   0.70988
 Alpha virt. eigenvalues --    0.73432   0.73432   0.82317   1.11852   1.44021
 Alpha virt. eigenvalues --    1.44021   1.51718   1.51718   1.56913   1.74339
 Alpha virt. eigenvalues --    1.80435   1.80435   1.81010   1.81010   1.81153
 Alpha virt. eigenvalues --    1.81153   1.85851   1.85851   1.86201   1.86519
 Alpha virt. eigenvalues --    1.87585   1.87585   2.30526   2.36297   2.36297
 Alpha virt. eigenvalues --    2.39672   2.39672   2.75308   3.05897   3.05897
 Alpha virt. eigenvalues --    3.48514   3.53979   3.53979   3.68271   3.68271
 Alpha virt. eigenvalues --    4.23978   4.25097   4.48759   4.48759   5.94327
 Alpha virt. eigenvalues --    6.24772   6.24772   6.57185   6.57185   7.15398
 Alpha virt. eigenvalues --    7.15398   7.16475   7.16475   7.67328   7.67328
 Alpha virt. eigenvalues --    7.73147   7.87500   7.87500   8.01143   8.39202
 Alpha virt. eigenvalues --    8.39202   8.40140   8.40140   8.62523   9.02392
 Alpha virt. eigenvalues --    9.11657   9.11657   9.13543   9.13543   9.71996
 Alpha virt. eigenvalues --    9.71996  10.82798  12.90050  12.90050  13.34086
 Alpha virt. eigenvalues --   16.44966
          Condensed to atoms (all electrons):
               1          2
     1  H    0.578455   0.421545
     2  H    0.421545   0.578455
 Mulliken charges:
               1
     1  H    0.000000
     2  H    0.000000
 Sum of Mulliken charges =   0.00000
 Mulliken charges with hydrogens summed into heavy atoms:
               1
 Electronic spatial extent (au):  <R**2>=              5.1587
 Charge=              0.0000 electrons
 Dipole moment (field-independent basis, Debye):
    X=              0.0000    Y=             -0.0000    Z=             -0.0000  Tot=              0.0000
 Quadrupole moment (field-independent basis, Debye-Ang):
   XX=             -2.0944   YY=             -2.0944   ZZ=             -1.4262
   XY=             -0.0000   XZ=             -0.0000   YZ=              0.0000
 Traceless Quadrupole moment (field-independent basis, Debye-Ang):
   XX=             -0.2228   YY=             -0.2228   ZZ=              0.4455
   XY=             -0.0000   XZ=             -0.0000   YZ=              0.0000
 Octapole moment (field-independent basis, Debye-Ang**2):
  XXX=             -0.0000  YYY=              0.0000  ZZZ=              0.0000  XYY=             -0.0000
  XXY=              0.0000  XXZ=              0.0000  XZZ=             -0.0000  YZZ=             -0.0000
  YYZ=              0.0000  XYZ=              0.0000
 Hexadecapole moment (field-independent basis, Debye-Ang**3):
 XXXX=             -2.0941 YYYY=             -2.0941 ZZZZ=             -2.7108 XXXY=             -0.0000
 XXXZ=              0.0000 YYYX=             -0.0000 YYYZ=              0.0000 ZZZX=              0.0000
 ZZZY=              0.0000 XXYY=             -0.6980 XXZZ=             -0.8192 YYZZ=             -0.8192
 XXYZ=              0.0000 YYXZ=              0.0000 ZZXY=             -0.0000
 N-N= 7.128054738849D-01 E-N=-3.628265161269D+00  KE= 1.124024349574D+00
 Symmetry AG   KE= 1.124024349574D+00
 Symmetry B1G  KE=-3.302772708778D-53
 Symmetry B2G  KE= 1.228081015435D-30
 Symmetry B3G  KE= 1.228081015435D-30
 Symmetry AU   KE= 2.330593227661D-54
 Symmetry B1U  KE=-3.202845790488D-20
 Symmetry B2U  KE= 3.513209439231D-33
 Symmetry B3U  KE= 3.513209439231D-33
 No NMR shielding tensors so no spin-rotation constants.
 Leave Link  601 at Tue Aug 13 16:46:41 2024, MaxMem=  1310720000 cpu:               1.0 elap:               0.1
 (Enter /opt/cluster/programs/g16-c.01/g16/l9999.exe)
 B after Tr=    -0.000000    0.000000    0.000000
         Rot=    1.000000    0.000000    0.000000    0.000000 Ang=   0.00 deg.
 Final structure in terms of initial Z-matrix:
 H
 H,1,dh2
      Variables:
 dh2=0.74238657
 Unable to Open any file for archive entry.
 1\1\GINC-NODE65\FOpt\RCCSD-FC\Aug-CC-pVQZ\H2\TOEPFER\13-Aug-2024\0\\#P
  CCSD/aug-cc-pVQZ SCF=(CONVER=8,maxcycle=200,XQC) opt\\HEME + H2 2D Sc
 an\\0,1\H,0.,0.,0.0038067149\H,0.,0.,0.7461932851\\Version=ES64L-G16Re
 vC.01\State=1-SGG\HF=-1.1334561\MP2=-1.1667144\MP3=-1.1717598\MP4D=-1.
 1735183\MP4DQ=-1.1731708\MP4SDQ=-1.1732431\CCSD=-1.1738673\RMSD=5.240e
 -09\RMSF=1.575e-04\Dipole=0.,0.,0.\PG=D*H [C*(H1.H1)]\\@
 The archive entry for this job was punched.


 WE HAVE LEARNED THAT NOTHING IS SIMPLE AND
 RATIONAL EXCEPT WHAT WE OURSELVES HAVE INVENTED;
 THAT GOD THINKS IN TERMS NEITHER OF EUCLID OR RIEMANN; THAT SCIENCE HAS "EXPLAINED" NOTHING;
 THAT THE MORE WE KNOW THE MORE FANTASTIC THE WORLD BECOMES
 AND THE PROFOUNDER THE SURROUNDING DARKNESS.
   --  ALDOUS HUXLEY
 Job cpu time:       0 days  0 hours 20 minutes 24.6 seconds.
 Elapsed time:       0 days  0 hours  2 minutes 36.0 seconds.
 File lengths (MBytes):  RWF=   1623 Int=      0 D2E=      0 Chk=      3 Scr=      1
 Normal termination of Gaussian 16 at Tue Aug 13 16:46:42 2024.
