 Entering Gaussian System, Link 0=/opt/cluster/programs/g16-c.01/g16/g16
 Input=/data/toepfer/Project_Heme/H2_fit/H2_opt/h2_spc.com
 Output=/scratch/toepfer/h2_spc/h2_spc.out
 Initial command:
 /opt/cluster/programs/g16-c.01/g16/l1.exe "/scratch/toepfer/h2_spc/Gau-15525.inp" -scrdir="/scratch/toepfer/h2_spc/"
 Entering Link 1 = /opt/cluster/programs/g16-c.01/g16/l1.exe PID=     15526.
  
 Copyright (c) 1988-2019, Gaussian, Inc.  All Rights Reserved.
  
 This is part of the Gaussian(R) 16 program.  It is based on
 the Gaussian(R) 09 system (copyright 2009, Gaussian, Inc.),
 the Gaussian(R) 03 system (copyright 2003, Gaussian, Inc.),
 the Gaussian(R) 98 system (copyright 1998, Gaussian, Inc.),
 the Gaussian(R) 94 system (copyright 1995, Gaussian, Inc.),
 the Gaussian 92(TM) system (copyright 1992, Gaussian, Inc.),
 the Gaussian 90(TM) system (copyright 1990, Gaussian, Inc.),
 the Gaussian 88(TM) system (copyright 1988, Gaussian, Inc.),
 the Gaussian 86(TM) system (copyright 1986, Carnegie Mellon
 University), and the Gaussian 82(TM) system (copyright 1983,
 Carnegie Mellon University). Gaussian is a federally registered
 trademark of Gaussian, Inc.
  
 This software contains proprietary and confidential information,
 including trade secrets, belonging to Gaussian, Inc.
  
 This software is provided under written license and may be
 used, copied, transmitted, or stored only in accord with that
 written license.
  
 The following legend is applicable only to US Government
 contracts under FAR:
  
                    RESTRICTED RIGHTS LEGEND
  
 Use, reproduction and disclosure by the US Government is
 subject to restrictions as set forth in subparagraphs (a)
 and (c) of the Commercial Computer Software - Restricted
 Rights clause in FAR 52.227-19.
  
 Gaussian, Inc.
 340 Quinnipiac St., Bldg. 40, Wallingford CT 06492
  
  
 ---------------------------------------------------------------
 Warning -- This program may not be used in any manner that
 competes with the business of Gaussian, Inc. or will provide
 assistance to any competitor of Gaussian, Inc.  The licensee
 of this program is prohibited from giving any competitor of
 Gaussian, Inc. access to this program.  By using this program,
 the user acknowledges that Gaussian, Inc. is engaged in the
 business of creating and licensing software in the field of
 computational chemistry and represents and warrants to the
 licensee that it is not a competitor of Gaussian, Inc. and that
 it will not use this program in any manner prohibited above.
 ---------------------------------------------------------------
  

 Cite this work as:
 Gaussian 16, Revision C.01,
 M. J. Frisch, G. W. Trucks, H. B. Schlegel, G. E. Scuseria, 
 M. A. Robb, J. R. Cheeseman, G. Scalmani, V. Barone, 
 G. A. Petersson, H. Nakatsuji, X. Li, M. Caricato, A. V. Marenich, 
 J. Bloino, B. G. Janesko, R. Gomperts, B. Mennucci, H. P. Hratchian, 
 J. V. Ortiz, A. F. Izmaylov, J. L. Sonnenberg, D. Williams-Young, 
 F. Ding, F. Lipparini, F. Egidi, J. Goings, B. Peng, A. Petrone, 
 T. Henderson, D. Ranasinghe, V. G. Zakrzewski, J. Gao, N. Rega, 
 G. Zheng, W. Liang, M. Hada, M. Ehara, K. Toyota, R. Fukuda, 
 J. Hasegawa, M. Ishida, T. Nakajima, Y. Honda, O. Kitao, H. Nakai, 
 T. Vreven, K. Throssell, J. A. Montgomery, Jr., J. E. Peralta, 
 F. Ogliaro, M. J. Bearpark, J. J. Heyd, E. N. Brothers, K. N. Kudin, 
 V. N. Staroverov, T. A. Keith, R. Kobayashi, J. Normand, 
 K. Raghavachari, A. P. Rendell, J. C. Burant, S. S. Iyengar, 
 J. Tomasi, M. Cossi, J. M. Millam, M. Klene, C. Adamo, R. Cammi, 
 J. W. Ochterski, R. L. Martin, K. Morokuma, O. Farkas, 
 J. B. Foresman, and D. J. Fox, Gaussian, Inc., Wallingford CT, 2019.
 
 ******************************************
 Gaussian 16:  ES64L-G16RevC.01  3-Jul-2019
                13-Aug-2024 
 ******************************************
 %MEM=10000MB
 %nproc=8
 Will use up to    8 processors via shared memory.
 %Chk=h2_spc.chk
 ------------------------------------------------------
 #P CCSD(T)/aug-cc-pVQZ SCF=(CONVER=8,maxcycle=200,XQC)
 ------------------------------------------------------
 1/38=1,172=1/1;
 2/12=2,17=6,18=5,40=1/2;
 3/5=16,6=2,7=10,11=9,25=1,30=1/1,2,3;
 4//1;
 5/5=2,6=8,7=200,8=3,13=1,38=5/2,8;
 8/6=4,9=120000,10=1/1,4;
 9/5=7,14=2/13;
 6/7=2,8=2,9=2,10=2/1;
 99/5=1,9=1/99;
 Leave Link    1 at Tue Aug 13 16:57:09 2024, MaxMem=  1310720000 cpu:               0.3 elap:               0.0
 (Enter /opt/cluster/programs/g16-c.01/g16/l101.exe)
 -----------------
 HEME + H2 2D Scan
 -----------------
 Symbolic Z-matrix:
 Charge =  0 Multiplicity = 1
 h                     0.        0.        0.37119 
 h                     0.        0.       -0.37119 
 
 ITRead=  0  0
 MicOpt= -1 -1
 NAtoms=      2 NQM=        2 NQMF=       0 NMMI=      0 NMMIF=      0
                NMic=       0 NMicF=      0.
                    Isotopes and Nuclear Properties:
 (Nuclear quadrupole moments (NQMom) in fm**2, nuclear magnetic moments (NMagM)
  in nuclear magnetons)

  Atom         1           2
 IAtWgt=           1           1
 AtmWgt=   1.0078250   1.0078250
 NucSpn=           1           1
 AtZEff=  -0.0000000  -0.0000000
 NQMom=    0.0000000   0.0000000
 NMagM=    2.7928460   2.7928460
 AtZNuc=   1.0000000   1.0000000
 Leave Link  101 at Tue Aug 13 16:57:10 2024, MaxMem=  1310720000 cpu:               1.6 elap:               0.2
 (Enter /opt/cluster/programs/g16-c.01/g16/l202.exe)
                          Input orientation:                          
 ---------------------------------------------------------------------
 Center     Atomic      Atomic             Coordinates (Angstroms)
 Number     Number       Type             X           Y           Z
 ---------------------------------------------------------------------
      1          1           0        0.000000    0.000000    0.371193
      2          1           0        0.000000    0.000000   -0.371193
 ---------------------------------------------------------------------
 Stoichiometry    H2
 Framework group  D*H[C*(H.H)]
 Deg. of freedom     1
 Full point group                 D*H     NOp   8
 Largest Abelian subgroup         D2H     NOp   8
 Largest concise Abelian subgroup C2      NOp   2
                         Standard orientation:                         
 ---------------------------------------------------------------------
 Center     Atomic      Atomic             Coordinates (Angstroms)
 Number     Number       Type             X           Y           Z
 ---------------------------------------------------------------------
      1          1           0        0.000000    0.000000    0.371193
      2          1           0        0.000000    0.000000   -0.371193
 ---------------------------------------------------------------------
 Rotational constants (GHZ):           0.0000000        1819.7113569        1819.7113569
 Leave Link  202 at Tue Aug 13 16:57:10 2024, MaxMem=  1310720000 cpu:               0.0 elap:               0.0
 (Enter /opt/cluster/programs/g16-c.01/g16/l301.exe)
 Standard basis: Aug-CC-pVQZ (5D, 7F)
 Ernie: Thresh=  0.10000D-02 Tol=  0.10000D-05 Strict=F.
 There are    24 symmetry adapted cartesian basis functions of AG  symmetry.
 There are     5 symmetry adapted cartesian basis functions of B1G symmetry.
 There are    13 symmetry adapted cartesian basis functions of B2G symmetry.
 There are    13 symmetry adapted cartesian basis functions of B3G symmetry.
 There are     5 symmetry adapted cartesian basis functions of AU  symmetry.
 There are    24 symmetry adapted cartesian basis functions of B1U symmetry.
 There are    13 symmetry adapted cartesian basis functions of B2U symmetry.
 There are    13 symmetry adapted cartesian basis functions of B3U symmetry.
 There are    19 symmetry adapted basis functions of AG  symmetry.
 There are     5 symmetry adapted basis functions of B1G symmetry.
 There are    11 symmetry adapted basis functions of B2G symmetry.
 There are    11 symmetry adapted basis functions of B3G symmetry.
 There are     5 symmetry adapted basis functions of AU  symmetry.
 There are    19 symmetry adapted basis functions of B1U symmetry.
 There are    11 symmetry adapted basis functions of B2U symmetry.
 There are    11 symmetry adapted basis functions of B3U symmetry.
    92 basis functions,   114 primitive gaussians,   110 cartesian basis functions
     1 alpha electrons        1 beta electrons
       nuclear repulsion energy         0.7128060213 Hartrees.
 IExCor=    0 DFT=F Ex=HF Corr=None ExCW=0 ScaHFX=  1.000000
 ScaDFX=  1.000000  1.000000  1.000000  1.000000 ScalE2=  1.000000  1.000000
 IRadAn=      5 IRanWt=     -1 IRanGd=            0 ICorTp=0 IEmpDi=  4
 NAtoms=    2 NActive=    2 NUniq=    1 SFac= 4.00D+00 NAtFMM=   60 NAOKFM=F Big=F
 Integral buffers will be    131072 words long.
 Raffenetti 1 integral format.
 Two-electron integral symmetry is turned on.
 Leave Link  301 at Tue Aug 13 16:57:10 2024, MaxMem=  1310720000 cpu:               0.4 elap:               0.0
 (Enter /opt/cluster/programs/g16-c.01/g16/l302.exe)
 NPDir=0 NMtPBC=     1 NCelOv=     1 NCel=       1 NClECP=     1 NCelD=      1
         NCelK=      1 NCelE2=     1 NClLst=     1 CellRange=     0.0.
 One-electron integrals computed using PRISM.
 One-electron integral symmetry used in STVInt
 NBasis=    92 RedAO= T EigKep=  3.34D-05  NBF=    19     5    11    11     5    19    11    11
 NBsUse=    92 1.00D-06 EigRej= -1.00D+00 NBFU=    19     5    11    11     5    19    11    11
 Leave Link  302 at Tue Aug 13 16:57:10 2024, MaxMem=  1310720000 cpu:               1.1 elap:               0.1
 (Enter /opt/cluster/programs/g16-c.01/g16/l303.exe)
 DipDrv:  MaxL=1.
 Leave Link  303 at Tue Aug 13 16:57:10 2024, MaxMem=  1310720000 cpu:               0.3 elap:               0.0
 (Enter /opt/cluster/programs/g16-c.01/g16/l401.exe)
 ExpMin= 2.36D-02 ExpMax= 8.26D+01 ExpMxC= 8.26D+01 IAcc=3 IRadAn=         5 AccDes= 0.00D+00
 Harris functional with IExCor=  205 and IRadAn=       5 diagonalized for initial guess.
 HarFok:  IExCor=  205 AccDes= 0.00D+00 IRadAn=         5 IDoV= 1 UseB2=F ITyADJ=14
 ICtDFT=  3500011 ScaDFX=  1.000000  1.000000  1.000000  1.000000
 FoFCou: FMM=F IPFlag=           0 FMFlag=      100000 FMFlg1=           0
         NFxFlg=           0 DoJE=T BraDBF=F KetDBF=T FulRan=T
         wScrn=  0.000000 ICntrl=       500 IOpCl=  0 I1Cent=   200000004 NGrid=           0
         NMat0=    1 NMatS0=      1 NMatT0=    0 NMatD0=    1 NMtDS0=    0 NMtDT0=    0
 Petite list used in FoFCou.
 Harris En= -1.18740187908485    
 JPrj=0 DoOrth=F DoCkMO=F.
 Initial guess orbital symmetries:
       Occupied  (SGG)
       Virtual   (SGU) (SGG) (PIU) (PIU) (SGU) (SGG) (PIG) (PIG)
                 (SGG) (SGU) (DLTG) (DLTG) (PIU) (PIU) (SGU) (PIG)
                 (PIG) (SGG) (DLTU) (DLTU) (PIU) (PIU) (SGU) (SGG)
                 (PIG) (PIG) (PHIU) (PHIU) (SGU) (SGG) (SGU) (DLTU)
                 (DLTU) (PIU) (PIU) (PIG) (PIG) (DLTG) (DLTG) (SGG)
                 (PHIG) (PHIG) (PIU) (PIU) (DLTG) (DLTG) (SGU)
                 (SGG) (PIG) (PIG) (SGU) (PIU) (PIU) (DLTU) (DLTU)
                 (SGU) (SGG) (PIG) (PIG) (SGG) (PHIU) (PHIU) (DLTG)
                 (DLTG) (PIU) (PIU) (PHIG) (PHIG) (SGG) (PIG) (PIG)
                 (DLTU) (DLTU) (SGU) (DLTG) (DLTG) (PIU) (PIU)
                 (SGU) (SGG) (PIU) (PIU) (PIG) (PIG) (DLTU) (DLTU)
                 (SGU) (PIG) (PIG) (SGG) (SGU)
 The electronic state of the initial guess is 1-SGG.
 Leave Link  401 at Tue Aug 13 16:57:10 2024, MaxMem=  1310720000 cpu:               1.3 elap:               0.2
 (Enter /opt/cluster/programs/g16-c.01/g16/l502.exe)
 Keep R1 ints in memory in symmetry-blocked form, NReq=13066297.
 FoFCou: FMM=F IPFlag=           0 FMFlag=           0 FMFlg1=           0
         NFxFlg=           0 DoJE=F BraDBF=F KetDBF=F FulRan=T
         wScrn=  0.000000 ICntrl=       600 IOpCl=  0 I1Cent=           0 NGrid=           0
         NMat0=    1 NMatS0=   4278 NMatT0=    0 NMatD0=    1 NMtDS0=    0 NMtDT0=    0
 Petite list used in FoFCou.
 Closed shell SCF:
 Using DIIS extrapolation, IDIIS=  1040.
 NGot=  1310720000 LenX=  1309507963 LenY=  1309495422
 Requested convergence on RMS density matrix=1.00D-08 within 128 cycles.
 Requested convergence on MAX density matrix=1.00D-06.
 Requested convergence on             energy=1.00D-06.
 No special actions if energy rises.

 Cycle   1  Pass 1  IDiag  1:
 E= -1.13053869884041    
 DIIS: error= 1.88D-02 at cycle   1 NSaved=   1.
 NSaved= 1 IEnMin= 1 EnMin= -1.13053869884041     IErMin= 1 ErrMin= 1.88D-02
 ErrMax= 1.88D-02  0.00D+00 EMaxC= 1.00D-01 BMatC= 2.60D-03 BMatP= 2.60D-03
 IDIUse=3 WtCom= 8.12D-01 WtEn= 1.88D-01
 Coeff-Com:  0.100D+01
 Coeff-En:   0.100D+01
 Coeff:      0.100D+01
 Gap=     0.639 Goal=   None    Shift=    0.000
 GapD=    0.639 DampG=2.000 DampE=0.500 DampFc=1.0000 IDamp=-1.
 RMSDP=2.06D-04 MaxDP=5.24D-03              OVMax= 3.00D-02

 Cycle   2  Pass 1  IDiag  1:
 E= -1.13338800688154     Delta-E=       -0.002849308041 Rises=F Damp=F
 DIIS: error= 2.48D-03 at cycle   2 NSaved=   2.
 NSaved= 2 IEnMin= 2 EnMin= -1.13338800688154     IErMin= 2 ErrMin= 2.48D-03
 ErrMax= 2.48D-03  0.00D+00 EMaxC= 1.00D-01 BMatC= 3.77D-05 BMatP= 2.60D-03
 IDIUse=3 WtCom= 9.75D-01 WtEn= 2.48D-02
 Coeff-Com: -0.115D+00 0.111D+01
 Coeff-En:   0.000D+00 0.100D+01
 Coeff:     -0.112D+00 0.111D+01
 Gap=     0.641 Goal=   None    Shift=    0.000
 RMSDP=4.26D-05 MaxDP=9.46D-04 DE=-2.85D-03 OVMax= 5.61D-03

 Cycle   3  Pass 1  IDiag  1:
 E= -1.13345526373245     Delta-E=       -0.000067256851 Rises=F Damp=F
 DIIS: error= 1.57D-04 at cycle   3 NSaved=   3.
 NSaved= 3 IEnMin= 3 EnMin= -1.13345526373245     IErMin= 3 ErrMin= 1.57D-04
 ErrMax= 1.57D-04  0.00D+00 EMaxC= 1.00D-01 BMatC= 3.85D-07 BMatP= 3.77D-05
 IDIUse=3 WtCom= 9.98D-01 WtEn= 1.57D-03
 Coeff-Com:  0.229D-01-0.235D+00 0.121D+01
 Coeff-En:   0.000D+00 0.000D+00 0.100D+01
 Coeff:      0.229D-01-0.234D+00 0.121D+01
 Gap=     0.641 Goal=   None    Shift=    0.000
 RMSDP=8.21D-06 MaxDP=2.28D-04 DE=-6.73D-05 OVMax= 7.32D-04

 Cycle   4  Pass 1  IDiag  1:
 E= -1.13345613584007     Delta-E=       -0.000000872108 Rises=F Damp=F
 DIIS: error= 1.46D-05 at cycle   4 NSaved=   4.
 NSaved= 4 IEnMin= 4 EnMin= -1.13345613584007     IErMin= 4 ErrMin= 1.46D-05
 ErrMax= 1.46D-05  0.00D+00 EMaxC= 1.00D-01 BMatC= 3.01D-09 BMatP= 3.85D-07
 IDIUse=1 WtCom= 1.00D+00 WtEn= 0.00D+00
 Coeff-Com: -0.392D-02 0.417D-01-0.261D+00 0.122D+01
 Coeff:     -0.392D-02 0.417D-01-0.261D+00 0.122D+01
 Gap=     0.641 Goal=   None    Shift=    0.000
 RMSDP=1.21D-06 MaxDP=4.22D-05 DE=-8.72D-07 OVMax= 7.50D-05

 Cycle   5  Pass 1  IDiag  1:
 E= -1.13345614369896     Delta-E=       -0.000000007859 Rises=F Damp=F
 DIIS: error= 7.24D-07 at cycle   5 NSaved=   5.
 NSaved= 5 IEnMin= 5 EnMin= -1.13345614369896     IErMin= 5 ErrMin= 7.24D-07
 ErrMax= 7.24D-07  0.00D+00 EMaxC= 1.00D-01 BMatC= 7.06D-12 BMatP= 3.01D-09
 IDIUse=1 WtCom= 1.00D+00 WtEn= 0.00D+00
 Coeff-Com:  0.468D-03-0.499D-02 0.322D-01-0.179D+00 0.115D+01
 Coeff:      0.468D-03-0.499D-02 0.322D-01-0.179D+00 0.115D+01
 Gap=     0.641 Goal=   None    Shift=    0.000
 RMSDP=7.42D-08 MaxDP=1.46D-06 DE=-7.86D-09 OVMax= 3.94D-06

 Cycle   6  Pass 1  IDiag  1:
 E= -1.13345614371905     Delta-E=       -0.000000000020 Rises=F Damp=F
 DIIS: error= 3.92D-08 at cycle   6 NSaved=   6.
 NSaved= 6 IEnMin= 6 EnMin= -1.13345614371905     IErMin= 6 ErrMin= 3.92D-08
 ErrMax= 3.92D-08  0.00D+00 EMaxC= 1.00D-01 BMatC= 3.52D-14 BMatP= 7.06D-12
 IDIUse=1 WtCom= 1.00D+00 WtEn= 0.00D+00
 Coeff-Com: -0.492D-04 0.518D-03-0.341D-02 0.198D-01-0.172D+00 0.116D+01
 Coeff:     -0.492D-04 0.518D-03-0.341D-02 0.198D-01-0.172D+00 0.116D+01
 Gap=     0.641 Goal=   None    Shift=    0.000
 RMSDP=5.97D-09 MaxDP=1.06D-07 DE=-2.01D-11 OVMax= 2.84D-07

 SCF Done:  E(RHF) =  -1.13345614372     A.U. after    6 cycles
            NFock=  6  Conv=0.60D-08     -V/T= 2.0084
 KE= 1.124024922263D+00 PE=-3.628266489356D+00 EE= 6.579794020865D-01
 Leave Link  502 at Tue Aug 13 16:57:11 2024, MaxMem=  1310720000 cpu:               2.9 elap:               0.4
 (Enter /opt/cluster/programs/g16-c.01/g16/l508.exe)
 QCSCF skips out because SCF is already converged.
 Leave Link  508 at Tue Aug 13 16:57:11 2024, MaxMem=  1310720000 cpu:               0.0 elap:               0.0
 (Enter /opt/cluster/programs/g16-c.01/g16/l801.exe)
 Windowed orbitals will be sorted by symmetry type.
 Range of M.O.s used for correlation:     1    92
 NBasis=    92 NAE=     1 NBE=     1 NFC=     0 NFV=     0
 NROrb=     92 NOA=     1 NOB=     1 NVA=    91 NVB=    91

 **** Warning!!: The largest alpha MO coefficient is  0.77478846D+02

 Leave Link  801 at Tue Aug 13 16:57:11 2024, MaxMem=  1310720000 cpu:               0.3 elap:               0.0
 (Enter /opt/cluster/programs/g16-c.01/g16/l804.exe)
 Closed-shell transformation, MDV=  1310720000 ITran=4 ISComp=2.
 Unit  1 TFree=         20807 TCopy=        243355.
 Semi-Direct transformation.
 ModeAB=           4 MOrb=             1 LenV=    1310341315
 LASXX=        49960 LTotXX=       49960 LenRXX=      102232
 LTotAB=       52272 MaxLAS=      310408 LenRXY=           0
 NonZer=      152192 LenScr=      785920 LnRSAI=      310408
 LnScr1=      930816 LExtra=           0 Total=      2129376
 MaxDsk=          -1 SrtSym=           T ITran=            4
 DoSDTr:  NPSUse=  8
 JobTyp=0 Pass  1:  I=   1 to   1.
 (rs|ai) integrals will be sorted in core.
 Complete sort for first half transformation.
 First half transformation complete.
 Complete sort for second half transformation.
 Second half transformation complete.
 Spin components of T(2) and E(2):
     alpha-alpha T2 =       0.0000000000D+00 E2=      0.0000000000D+00
     alpha-beta  T2 =       0.1044913758D-01 E2=     -0.3325825334D-01
     beta-beta   T2 =       0.0000000000D+00 E2=      0.0000000000D+00
 ANorm=    0.1005210992D+01
 E2 =    -0.3325825334D-01 EUMP2 =    -0.11667143970557D+01
 Leave Link  804 at Tue Aug 13 16:57:11 2024, MaxMem=  1310720000 cpu:               1.7 elap:               0.2
 (Enter /opt/cluster/programs/g16-c.01/g16/l913.exe)
 CIDS:  MDV=  1310720000.
 IFCWin=0 IBDFC=1 NFBD=     0     0 NFCmp=     0     0 NFFFC=     0     0
 Using DD3R+UMP44R for 1st iteration.
 Using DD4RQ for 2nd and later iterations.
 Keep R2 and R3 ints in memory in symmetry-blocked form, NReq=13069217.
 FoFCou: FMM=F IPFlag=           0 FMFlag=           0 FMFlg1=           0
         NFxFlg=           0 DoJE=F BraDBF=F KetDBF=F FulRan=T
         wScrn=  0.000000 ICntrl=       600 IOpCl=  0 I1Cent=           0 NGrid=           0
         NMat0=    1 NMatS0=   4278 NMatT0=    0 NMatD0=    1 NMtDS0=    0 NMtDT0=    0
 Petite list used in FoFCou.
 CIDS: In Core Option IDoMem=           1.
 CCSD(T)
 =======
 Iterations=  50 Convergence= 0.100D-06
 Produce multiple copies of IABC intergrals
 Iteration Nr.   1
 **********************
 DD1Dir will call FoFMem   1 times, MxPair=         2
 NAB=     1 NAA=     0 NBB=     0.
 MP4(R+Q)=  0.34752006D-03
 Maximum subspace dimension=  5
 A-vector RMS=  1.3534676D-03 Max=  6.6150949D-03 conv= 1.00D-05.
 RLE energy=       -0.0387257592
 E3=       -0.50453569D-02        EUMP3=      -0.11717597540D+01
 E4(DQ)=   -0.14110626D-02        UMP4(DQ)=   -0.11731708166D+01
 E4(SDQ)=  -0.14833206D-02        UMP4(SDQ)=  -0.11732430746D+01
 VARIATIONAL ENERGIES WITH THE FIRST-ORDER WAVEFUNCTION:
 DE(Corr)= -0.37953828E-01 E(Corr)=     -1.1714099720    
 NORM(A)=   0.10080398D+01
 Iteration Nr.   2
 **********************
 DD1Dir will call FoFMem   1 times, MxPair=         2
 NAB=     1 NAA=     0 NBB=     0.
 A-vector RMS=  3.0300685D-04 Max=  2.1494988D-03 conv= 1.00D-05.
 RLE energy=       -0.0403722971
 DE(Corr)= -0.39851114E-01 E(CORR)=     -1.1733072580     Delta=-1.90D-03
 NORM(A)=   0.10090596D+01
 Iteration Nr.   3
 **********************
 DD1Dir will call FoFMem   1 times, MxPair=         2
 NAB=     1 NAA=     0 NBB=     0.
 A-vector RMS=  8.6967208D-05 Max=  3.3038689D-04 conv= 1.00D-05.
 RLE energy=       -0.0404037299
 DE(Corr)= -0.40364137E-01 E(CORR)=     -1.1738202811     Delta=-5.13D-04
 NORM(A)=   0.10091398D+01
 Iteration Nr.   4
 **********************
 DD1Dir will call FoFMem   1 times, MxPair=         2
 NAB=     1 NAA=     0 NBB=     0.
 A-vector RMS=  1.6969239D-05 Max=  6.8860334D-05 conv= 1.00D-05.
 RLE energy=       -0.0404119412
 DE(Corr)= -0.40408062E-01 E(CORR)=     -1.1738642054     Delta=-4.39D-05
 NORM(A)=   0.10091513D+01
 Iteration Nr.   5
 **********************
 DD1Dir will call FoFMem   1 times, MxPair=         2
 NAB=     1 NAA=     0 NBB=     0.
 A-vector RMS=  3.3580858D-06 Max=  8.8171365D-06 conv= 1.00D-05.
 RLE energy=       -0.0404113073
 DE(Corr)= -0.40411331E-01 E(CORR)=     -1.1738674748     Delta=-3.27D-06
 NORM(A)=   0.10091510D+01
 Iteration Nr.   6
 **********************
 DD1Dir will call FoFMem   1 times, MxPair=         2
 NAB=     1 NAA=     0 NBB=     0.
 A-vector RMS=  8.7151210D-07 Max=  2.8007804D-06 conv= 1.00D-05.
 RLE energy=       -0.0404112053
 DE(Corr)= -0.40411231E-01 E(CORR)=     -1.1738673751     Delta= 9.97D-08
 NORM(A)=   0.10091509D+01
 CI/CC converged in    6 iterations to DelEn= 9.97D-08 Conv= 1.00D-07 ErrA1= 8.72D-07 Conv= 1.00D-05
 Wavefunction amplitudes converged. E(Corr)=     -1.1738673751    
 Largest amplitude= 3.42D-02
 Time for triples=        0.00 seconds.
 T4(CCSD)=  0.00000000D+00
 T5(CCSD)=  0.00000000D+00
 CCSD(T)= -0.11738673751D+01
 Discarding MO integrals.
 Leave Link  913 at Tue Aug 13 16:57:12 2024, MaxMem=  1310720000 cpu:               3.1 elap:               0.4
 (Enter /opt/cluster/programs/g16-c.01/g16/l601.exe)
 Copying SCF densities to generalized density rwf, IOpCl= 0 IROHF=0.

 **********************************************************************

            Population analysis using the SCF Density.

 **********************************************************************

 Orbital symmetries:
       Occupied  (SGG)
       Virtual   (SGG) (SGU) (SGU) (PIU) (PIU) (SGG) (PIG) (PIG)
                 (SGG) (SGU) (DLTG) (DLTG) (SGU) (PIG) (PIG) (SGG)
                 (PIU) (PIU) (DLTU) (DLTU) (PIU) (PIU) (SGU) (SGG)
                 (PIG) (PIG) (PHIU) (PHIU) (SGU) (SGG) (DLTU) (DLTU)
                 (PIG) (PIG) (PIU) (PIU) (DLTG) (DLTG) (SGU) (SGG)
                 (PHIG) (PHIG) (SGU) (PIU) (PIU) (DLTG) (DLTG)
                 (SGG) (PIG) (PIG) (SGU) (PIU) (PIU) (DLTU) (DLTU)
                 (SGU) (SGG) (PIG) (PIG) (SGG) (PHIU) (PHIU) (DLTG)
                 (DLTG) (PIU) (PIU) (PHIG) (PHIG) (PIG) (PIG) (SGG)
                 (DLTU) (DLTU) (SGU) (DLTG) (DLTG) (PIU) (PIU)
                 (SGU) (SGG) (PIU) (PIU) (PIG) (PIG) (DLTU) (DLTU)
                 (SGU) (PIG) (PIG) (SGG) (SGU)
 The electronic state is 1-SGG.
 Alpha  occ. eigenvalues --   -0.59414
 Alpha virt. eigenvalues --    0.04723   0.04737   0.16060   0.17374   0.17374
 Alpha virt. eigenvalues --    0.22861   0.23325   0.23325   0.32662   0.36405
 Alpha virt. eigenvalues --    0.60152   0.60152   0.61045   0.66186   0.66186
 Alpha virt. eigenvalues --    0.68715   0.69974   0.69974   0.70988   0.70988
 Alpha virt. eigenvalues --    0.73432   0.73432   0.82317   1.11852   1.44021
 Alpha virt. eigenvalues --    1.44021   1.51718   1.51718   1.56913   1.74339
 Alpha virt. eigenvalues --    1.80435   1.80435   1.81011   1.81011   1.81153
 Alpha virt. eigenvalues --    1.81153   1.85851   1.85851   1.86201   1.86519
 Alpha virt. eigenvalues --    1.87585   1.87585   2.30526   2.36297   2.36297
 Alpha virt. eigenvalues --    2.39672   2.39672   2.75308   3.05897   3.05897
 Alpha virt. eigenvalues --    3.48514   3.53979   3.53979   3.68271   3.68271
 Alpha virt. eigenvalues --    4.23978   4.25097   4.48759   4.48759   5.94327
 Alpha virt. eigenvalues --    6.24772   6.24772   6.57185   6.57185   7.15398
 Alpha virt. eigenvalues --    7.15398   7.16475   7.16475   7.67328   7.67328
 Alpha virt. eigenvalues --    7.73147   7.87500   7.87500   8.01143   8.39202
 Alpha virt. eigenvalues --    8.39202   8.40140   8.40140   8.62523   9.02393
 Alpha virt. eigenvalues --    9.11657   9.11657   9.13543   9.13543   9.71997
 Alpha virt. eigenvalues --    9.71997  10.82798  12.90050  12.90050  13.34087
 Alpha virt. eigenvalues --   16.44966
          Condensed to atoms (all electrons):
               1          2
     1  H    0.578455   0.421545
     2  H    0.421545   0.578455
 Mulliken charges:
               1
     1  H    0.000000
     2  H    0.000000
 Sum of Mulliken charges =   0.00000
 Mulliken charges with hydrogens summed into heavy atoms:
               1
 Electronic spatial extent (au):  <R**2>=              5.1587
 Charge=              0.0000 electrons
 Dipole moment (field-independent basis, Debye):
    X=              0.0000    Y=              0.0000    Z=              0.0000  Tot=              0.0000
 Quadrupole moment (field-independent basis, Debye-Ang):
   XX=             -2.0944   YY=             -2.0944   ZZ=             -1.4262
   XY=             -0.0000   XZ=             -0.0000   YZ=              0.0000
 Traceless Quadrupole moment (field-independent basis, Debye-Ang):
   XX=             -0.2228   YY=             -0.2228   ZZ=              0.4455
   XY=             -0.0000   XZ=             -0.0000   YZ=              0.0000
 Octapole moment (field-independent basis, Debye-Ang**2):
  XXX=             -0.0000  YYY=             -0.0000  ZZZ=             -0.0000  XYY=             -0.0000
  XXY=             -0.0000  XXZ=              0.0000  XZZ=             -0.0000  YZZ=             -0.0000
  YYZ=              0.0000  XYZ=              0.0000
 Hexadecapole moment (field-independent basis, Debye-Ang**3):
 XXXX=             -2.0941 YYYY=             -2.0941 ZZZZ=             -2.7108 XXXY=             -0.0000
 XXXZ=              0.0000 YYYX=             -0.0000 YYYZ=              0.0000 ZZZX=              0.0000
 ZZZY=              0.0000 XXYY=             -0.6980 XXZZ=             -0.8192 YYZZ=             -0.8192
 XXYZ=              0.0000 YYXZ=              0.0000 ZZXY=             -0.0000
 N-N= 7.128060212881D-01 E-N=-3.628266484671D+00  KE= 1.124024922263D+00
 Symmetry AG   KE= 1.124024922263D+00
 Symmetry B1G  KE=-4.356520492384D-54
 Symmetry B2G  KE= 1.228084731294D-30
 Symmetry B3G  KE= 1.228084731295D-30
 Symmetry AU   KE=-1.295924910794D-54
 Symmetry B1U  KE=-1.759310093710D-20
 Symmetry B2U  KE= 3.513211958109D-33
 Symmetry B3U  KE= 3.513211958109D-33
 Leave Link  601 at Tue Aug 13 16:57:12 2024, MaxMem=  1310720000 cpu:               0.4 elap:               0.1
 (Enter /opt/cluster/programs/g16-c.01/g16/l9999.exe)
 Unable to Open any file for archive entry.
 1\1\GINC-NODE65\SP\RCCSD(T)-FC\Aug-CC-pVQZ\H2\TOEPFER\13-Aug-2024\0\\#
 P CCSD(T)/aug-cc-pVQZ SCF=(CONVER=8,maxcycle=200,XQC)\\HEME + H2 2D Sc
 an\\0,1\H,0,0.,0.,0.371193\H,0,0.,0.,-0.371193\\Version=ES64L-G16RevC.
 01\State=1-SGG\HF=-1.1334561\MP2=-1.1667144\MP3=-1.1717598\MP4D=-1.173
 5183\MP4DQ=-1.1731708\MP4SDQ=-1.1732431\CCSD=-1.1738674\CCSD(T)=-1.173
 8674\RMSD=5.969e-09\PG=D*H [C*(H1.H1)]\\@
 The archive entry for this job was punched.


 Where a calculator on the ENIAC is equipped with 18,000
 vacuum tubes and weighs 30 tons, computers inthe future
 may  have only 1,000 vacuum tubes and weigh only 1 1/2 tons.
              ---Popular Mechanics, March 1949
 Job cpu time:       0 days  0 hours  0 minutes 13.8 seconds.
 Elapsed time:       0 days  0 hours  0 minutes  1.8 seconds.
 File lengths (MBytes):  RWF=     24 Int=      0 D2E=      0 Chk=      2 Scr=      1
 Normal termination of Gaussian 16 at Tue Aug 13 16:57:12 2024.
